 Gaussian 16, Revision A.03,
 Gaussian 16:  ES64L-G16RevA.03 25-Dec-2016

 ----------------------------------------------------------------------
 #p opt=(ts,readfc,noeigen,maxcycle=1024) gen int=ultrafine wb97xd pseu
 do freq=noraman g09defaults 6d scf=qc
 ----------------------------------------------------------------------

 -------------------
 Title Card Required
 -------------------
 Symbolic Z-matrix:
 Charge =  2 Multiplicity = 5

 SCF Done:  E(UwB97XD) =  -818.472839686     a.u. after   30 cycles
 SCF Done:  E(UwB97XD) =  -818.472784198     a.u. after   21 cycles
 SCF Done:  E(UwB97XD) =  -818.472802795     a.u. after   12 cycles
 SCF Done:  E(UwB97XD) =  -818.472763158     a.u. after   19 cycles
 SCF Done:  E(UwB97XD) =  -818.472835015     a.u. after   11 cycles
 SCF Done:  E(UwB97XD) =  -818.472809186     a.u. after   14 cycles
 SCF Done:  E(UwB97XD) =  -818.472819914     a.u. after   13 cycles
 SCF Done:  E(UwB97XD) =  -818.472690295     a.u. after   20 cycles
 SCF Done:  E(UwB97XD) =  -818.472756550     a.u. after   14 cycles
 SCF Done:  E(UwB97XD) =  -818.472490651     a.u. after   19 cycles
 SCF Done:  E(UwB97XD) =  -818.472839238     a.u. after    9 cycles
 SCF Done:  E(UwB97XD) =  -818.472836427     a.u. after   13 cycles
 SCF Done:  E(UwB97XD) =  -818.472839699     a.u. after    8 cycles
 SCF Done:  E(UwB97XD) =  -818.472825173     a.u. after   13 cycles
 SCF Done:  E(UwB97XD) =  -818.472837979     a.u. after   11 cycles
 SCF Done:  E(UwB97XD) =  -818.472833117     a.u. after   15 cycles
 SCF Done:  E(UwB97XD) =  -818.472839381     a.u. after    8 cycles
 SCF Done:  E(UwB97XD) =  -818.472839976     a.u. after    6 cycles
 SCF Done:  E(UwB97XD) =  -818.472839856     a.u. after    3 cycles
 Optimization completed on the basis of negligible forces.
    -- Stationary point found.
 Normal termination of Gaussian 16 at Sun Nov 18 03:10:05 2018.

 -------------------------------------------------------------------
 #P Geom=AllCheck Guess=TCheck SCRF=Check GenChk UwB97XD/ChkBas Freq
 -------------------------------------------------------------------

 Structure from the checkpoint file:  "uts10.chk"
 -------------------
 Title Card Required
 -------------------
 Charge =  2 Multiplicity = 5

                         Standard orientation:
 ---------------------------------------------------------------------
 Center     Atomic      Atomic             Coordinates (Angstroms)
 Number     Number       Type             X           Y           Z
 ---------------------------------------------------------------------
      1         26           0       -0.023598   -0.013581   -0.198171
      2          7           0        0.442636    2.095971   -0.066344
      3          7           0       -0.024375    0.028218   -2.432195
      4          7           0        1.766143   -1.296133   -0.307173
      5          7           0       -2.150665   -0.625812   -0.305112
      6          8           0       -0.089745   -0.175510    1.477196
      7          6           0       -2.893624   -0.210151   -1.517590
      8          1           0       -3.948769   -0.490175   -1.430928
      9          1           0       -2.841372    0.875296   -1.636703
     10          1           0       -2.497089   -0.708323   -2.402853
     11          6           0       -2.904743   -0.130194    0.877882
     12          1           0       -2.980285    0.956568    0.837967
     13          1           0       -3.915887   -0.550592    0.872958
     14          1           0       -2.391543   -0.423422    1.790170
     15          6           0       -2.102582   -2.107267   -0.246944
     16          1           0       -3.114784   -2.526647   -0.256057
     17          1           0       -1.562676   -2.499139   -1.112582
     18          1           0       -1.604403   -2.417001    0.673506
     19          6           0        2.420737   -1.369480    1.027440
     20          1           0        1.722137   -1.777160    1.754683
     21          1           0        3.306180   -2.011022    0.969411
     22          1           0        2.723184   -0.372129    1.346212
     23          6           0        1.356172   -2.665214   -0.700725
     24          1           0        0.864998   -2.651342   -1.676459
     25          1           0        2.230039   -3.322533   -0.769956
     26          1           0        0.675116   -3.073904    0.046812
     27          6           0        2.760879   -0.783919   -1.279487
     28          1           0        2.965121    0.272260   -1.088833
     29          1           0        3.703013   -1.334679   -1.187947
     30          1           0        2.405091   -0.917663   -2.301316
     31          6           0       -0.787130    2.735455    0.465637
     32          1           0       -0.629365    3.810543    0.603459
     33          1           0       -1.608948    2.597137   -0.242269
     34          1           0       -1.042944    2.283958    1.424330
     35          6           0        1.548731    2.285824    0.907488
     36          1           0        2.466112    1.844260    0.512950
     37          1           0        1.724041    3.354099    1.072910
     38          1           0        1.289943    1.807050    1.850307
     39          6           0        0.816088    2.753586   -1.339591
     40          1           0       -0.008485    2.697058   -2.052024
     41          1           0        1.039540    3.811948   -1.168214
     42          1           0        1.709257    2.284225   -1.757825
     43          1           0       -0.139332   -0.890781   -2.858756
     44          1           0       -0.775014    0.598523   -2.817727
     45          1           0        0.833184    0.408750   -2.827556
     46          6           0       -0.078668   -0.438231    4.013486
     47          1           0       -0.878790    0.209345    4.370805
     48          1           0       -0.086075   -0.316612    2.804961
     49          1           0        0.913165   -0.112544    4.325975
     50          1           0       -0.264179   -1.496327    4.195660
 ---------------------------------------------------------------------

 SCF Done:  E(UwB97XD) =  -818.472839856     a.u. after    1 cycles

 The electronic state is 5-A.
 Alpha  occ. eigenvalues --  -19.55345 -14.77565 -14.77200 -14.77015 -14.76650
 Alpha  occ. eigenvalues --  -10.58450 -10.58367 -10.58106 -10.58006 -10.57822
 Alpha  occ. eigenvalues --  -10.57734 -10.57332 -10.56567 -10.56408 -10.52406
 Alpha  occ. eigenvalues --   -4.08864  -2.86783  -2.86412  -2.85649  -1.31827
 Alpha  occ. eigenvalues --   -1.31223  -1.30959  -1.29203  -1.28235  -1.07701
 Alpha  occ. eigenvalues --   -1.07587  -1.07252  -1.07082  -1.06442  -1.06238
 Alpha  occ. eigenvalues --   -1.01122  -0.96475  -0.96094  -0.95818  -0.88172
 Alpha  occ. eigenvalues --   -0.87940  -0.86582  -0.85223  -0.84787  -0.84651
 Alpha  occ. eigenvalues --   -0.83410  -0.82959  -0.82663  -0.82461  -0.82080
 Alpha  occ. eigenvalues --   -0.81849  -0.81005  -0.80577  -0.79624  -0.79441
 Alpha  occ. eigenvalues --   -0.75040  -0.74770  -0.74479  -0.74041  -0.73935
 Alpha  occ. eigenvalues --   -0.73617  -0.72723  -0.72246  -0.72011  -0.71836
 Alpha  occ. eigenvalues --   -0.71684  -0.71580  -0.71089  -0.70948  -0.70611
 Alpha  occ. eigenvalues --   -0.70572  -0.70358  -0.70307  -0.69527  -0.65354
 Alpha  occ. eigenvalues --   -0.64772  -0.61482  -0.61094  -0.60094
 Alpha virt. eigenvalues --   -0.32955  -0.17894  -0.14203  -0.13827  -0.13246
 Alpha virt. eigenvalues --   -0.09614  -0.09328  -0.08040  -0.07790  -0.06855
 Alpha virt. eigenvalues --   -0.06504  -0.05185  -0.04411  -0.04062  -0.03429

  Beta  occ. eigenvalues --  -19.55015 -14.77274 -14.76926 -14.76755 -14.76554
  Beta  occ. eigenvalues --  -10.58452 -10.58368 -10.58108 -10.58007 -10.57822
  Beta  occ. eigenvalues --  -10.57734 -10.57332 -10.56568 -10.56407 -10.52957
  Beta  occ. eigenvalues --   -3.87495  -2.63810  -2.63420  -2.63194  -1.31315
  Beta  occ. eigenvalues --   -1.30751  -1.30520  -1.28099  -1.27989  -1.07610
  Beta  occ. eigenvalues --   -1.07497  -1.07165  -1.06990  -1.06363  -1.06152
  Beta  occ. eigenvalues --   -1.03337  -0.96120  -0.95684  -0.95466  -0.87841
  Beta  occ. eigenvalues --   -0.87581  -0.85556  -0.83380  -0.82967  -0.82561
  Beta  occ. eigenvalues --   -0.82453  -0.82290  -0.82042  -0.81914  -0.81741
  Beta  occ. eigenvalues --   -0.81498  -0.75048  -0.74950  -0.74780  -0.74131
  Beta  occ. eigenvalues --   -0.74001  -0.73838  -0.72579  -0.72212  -0.72101
  Beta  occ. eigenvalues --   -0.71981  -0.71786  -0.71666  -0.71261  -0.71060
  Beta  occ. eigenvalues --   -0.70506  -0.70480  -0.70235  -0.69437  -0.65937
  Beta  occ. eigenvalues --   -0.65088  -0.64774  -0.63732  -0.62626  -0.61878
  Beta virt. eigenvalues --   -0.30894  -0.30602  -0.29790  -0.29673  -0.24774
  Beta virt. eigenvalues --   -0.17676  -0.14150  -0.13781  -0.12949  -0.09069
  Beta virt. eigenvalues --   -0.08614  -0.07849  -0.07537  -0.06750  -0.06163

 Mulliken charges and spin densities:
               1          2
     1  Fe   0.965705   3.811162
     2  N   -0.565286   0.124949
     3  N   -0.771936   0.034604
     4  N   -0.550844   0.117015
     5  N   -0.538774   0.111380
     6  O   -0.621056   0.160181
     7  C   -0.231738  -0.003296
     8  H    0.209288   0.004646
     9  H    0.161873   0.000803
    10  H    0.145785   0.000192
    11  C   -0.211399   0.001910
    12  H    0.157772   0.000430
    13  H    0.189209   0.003402
    14  H    0.176600  -0.000169
    15  C   -0.230086  -0.003912
    16  H    0.205009   0.006884
    17  H    0.148841   0.000825
    18  H    0.188222   0.000817
    19  C   -0.202705   0.001005
    20  H    0.175150   0.000094
    21  H    0.187123   0.002505
    22  H    0.159511   0.000316
    23  C   -0.223938  -0.004476
    24  H    0.140269   0.000876
    25  H    0.206932   0.006667
    26  H    0.181103   0.000853
    27  C   -0.223280  -0.003670
    28  H    0.156415   0.000885
    29  H    0.210988   0.005493
    30  H    0.145797   0.000112
    31  C   -0.224734  -0.002548
    32  H    0.203632   0.006913
    33  H    0.154645   0.000749
    34  H    0.189390   0.000825
    35  C   -0.217654  -0.000074
    36  H    0.154972   0.000626
    37  H    0.198731   0.004815
    38  H    0.183481   0.000525
    39  C   -0.222998  -0.003640
    40  H    0.152243   0.000457
    41  H    0.210258   0.005780
    42  H    0.156093   0.000667
    43  H    0.337764   0.000021
    44  H    0.335699  -0.000086
    45  H    0.332922   0.000020
    46  C   -0.544753  -0.417884
    47  H    0.203487   0.008132
    48  H    0.251604  -0.003757
    49  H    0.200295   0.007919
    50  H    0.204373   0.008058
 Sum of Mulliken charges =   2.00000   4.00000

 Dipole moment (field-independent basis, Debye):
    X=              0.0846    Y=              0.2004    Z=             -3.4653  Tot=              3.4721
 Quadrupole moment (field-independent basis, Debye-Ang):
   XX=            -67.5298   YY=            -71.1501   ZZ=            -67.5334
   XY=              0.0950   XZ=              0.1250   YZ=              0.1200

  Exact polarizability: 179.690  -0.072 172.008  -0.599  -4.872 218.795
 Approx polarizability: 177.400   0.056 174.073  -0.827  -5.084 227.663

 ******    1 imaginary frequencies (negative Signs) ******

                      1                      2                      3
                      A                      A                      A
 Frequencies --  -1061.0239                 7.7549                25.0715
 Red. masses --      1.4068                 1.0314                 2.7846
 Frc consts  --      0.9331                 0.0000                 0.0010
 IR Inten    --   3527.4372                 0.0174                 0.0035

                      4                      5                      6
                      A                      A                      A
 Frequencies --     31.7670                40.6193                52.1880
 Red. masses --      2.9621                 3.1261                 2.8086
 Frc consts  --      0.0018                 0.0030                 0.0045
 IR Inten    --      0.4238                 0.4889                 0.4556

                      7                      8                      9
                      A                      A                      A
 Frequencies --     72.1735                90.2812                98.0444
 Red. masses --      2.8892                 3.9755                 3.8948
 Frc consts  --      0.0089                 0.0191                 0.0221
 IR Inten    --      0.1748                 0.1275                 0.0497

                     10                     11                     12
                      A                      A                      A
 Frequencies --    141.2942               151.9197               162.0752
 Red. masses --      4.1340                 2.6504                 3.1075
 Frc consts  --      0.0486                 0.0360                 0.0481
 IR Inten    --      0.1439                 0.3881                 0.3825

                     13                     14                     15
                      A                      A                      A
 Frequencies --    169.4844               186.8889               194.2423
 Red. masses --      2.8327                 3.0587                 3.4737
 Frc consts  --      0.0479                 0.0629                 0.0772
 IR Inten    --      0.3319                 2.8512                 0.6918

                     16                     17                     18
                      A                      A                      A
 Frequencies --    197.2242               206.0183               214.4971
 Red. masses --      3.1555                 3.5277                 1.3475
 Frc consts  --      0.0723                 0.0882                 0.0365
 IR Inten    --      0.5343                 3.8389                 0.4269

                     19                     20                     21
                      A                      A                      A
 Frequencies --    222.2739               241.8849               252.2133
 Red. masses --      1.8442                 1.8776                 2.3255
 Frc consts  --      0.0537                 0.0647                 0.0872
 IR Inten    --      1.0733                 4.0325                 4.1309

                     22                     23                     24
                      A                      A                      A
 Frequencies --    255.1029               261.5107               270.5552
 Red. masses --      2.1141                 1.3185                 2.4713
 Frc consts  --      0.0811                 0.0531                 0.1066
 IR Inten    --      0.6137                 4.3014                 7.0505

                     25                     26                     27
                      A                      A                      A
 Frequencies --    276.3191               283.3126               299.0658
 Red. masses --      3.0953                 2.6026                 1.5703
 Frc consts  --      0.1392                 0.1231                 0.0827
 IR Inten    --      6.0198                 5.4218                 3.3452

                     28                     29                     30
                      A                      A                      A
 Frequencies --    313.7242               324.9317               327.8265
 Red. masses --      1.2174                 1.4277                 1.2016
 Frc consts  --      0.0706                 0.0888                 0.0761
 IR Inten    --      0.1479                 1.1470                 0.7407

                     31                     32                     33
                      A                      A                      A
 Frequencies --    340.2387               343.3048               352.2829
 Red. masses --      1.1066                 1.1122                 1.1742
 Frc consts  --      0.0755                 0.0772                 0.0859
 IR Inten    --      0.4306                 0.0490                 0.3666

                     34                     35                     36
                      A                      A                      A
 Frequencies --    379.1904               389.5129               395.0623
 Red. masses --      1.1187                 1.2126                 1.1911
 Frc consts  --      0.0948                 0.1084                 0.1095
 IR Inten    --      4.0244                 0.7063                 4.2548

                     37                     38                     39
                      A                      A                      A
 Frequencies --    434.9668               437.6494               440.8194
 Red. masses --      2.3762                 2.2301                 2.2716
 Frc consts  --      0.2649                 0.2517                 0.2601
 IR Inten    --      7.8307                 1.2708                 4.3876

                     40                     41                     42
                      A                      A                      A
 Frequencies --    443.9998               447.4326               448.7410
 Red. masses --      2.2471                 2.2987                 2.1867
 Frc consts  --      0.2610                 0.2711                 0.2594
 IR Inten    --      0.0227                 1.0998                 0.3112

                     43                     44                     45
                      A                      A                      A
 Frequencies --    475.4010               518.5110               528.2862
 Red. masses --      5.9909                 2.3885                 2.2656
 Frc consts  --      0.7977                 0.3784                 0.3725
 IR Inten    --     63.8717                 8.0112                 8.7950

                     46                     47                     48
                      A                      A                      A
 Frequencies --    530.7011               586.0726               596.5521
 Red. masses --      2.2367                 1.1603                 1.1581
 Frc consts  --      0.3712                 0.2348                 0.2428
 IR Inten    --      6.7341                51.1277                60.6981

                     49                     50                     51
                      A                      A                      A
 Frequencies --    843.6144               845.0317               848.4864
 Red. masses --      3.5440                 3.5563                 3.6386
 Frc consts  --      1.4860                 1.4962                 1.5434
 IR Inten    --     40.5106                45.0749                 5.3949

                     52                     53                     54
                      A                      A                      A
 Frequencies --   1020.4849              1022.6225              1025.4394
 Red. masses --      2.3162                 2.3291                 2.2977
 Frc consts  --      1.4212                 1.4351                 1.4235
 IR Inten    --      4.1670                24.2779                19.3169

                     55                     56                     57
                      A                      A                      A
 Frequencies --   1032.4719              1033.4907              1034.6576
 Red. masses --      2.2188                 2.2119                 2.2235
 Frc consts  --      1.3935                 1.3920                 1.4024
 IR Inten    --     22.8771                26.0993                34.8376

                     58                     59                     60
                      A                      A                      A
 Frequencies --   1073.6941              1076.0607              1077.1390
 Red. masses --      1.2022                 1.2103                 1.2032
 Frc consts  --      0.8165                 0.8257                 0.8225
 IR Inten    --      0.4571                11.0823                 3.4012

                     61                     62                     63
                      A                      A                      A
 Frequencies --   1085.8334              1119.3476              1120.0167
 Red. masses --      3.1187                 1.2859                 1.3028
 Frc consts  --      2.1665                 0.9492                 0.9629
 IR Inten    --    783.0175                 0.3508                 1.4640

                     64                     65                     66
                      A                      A                      A
 Frequencies --   1122.1057              1124.3861              1128.1774
 Red. masses --      1.2808                 1.2807                 1.2808
 Frc consts  --      0.9501                 0.9540                 0.9605
 IR Inten    --      3.5039                 3.5954                 0.5616

                     67                     68                     69
                      A                      A                      A
 Frequencies --   1129.6813              1170.9616              1176.4234
 Red. masses --      1.2767                 1.0885                 1.0879
 Frc consts  --      0.9599                 0.8794                 0.8871
 IR Inten    --      0.4725                16.7628                23.0250

                     70                     71                     72
                      A                      A                      A
 Frequencies --   1252.6907              1254.6039              1259.2104
 Red. masses --      1.7355                 1.7301                 1.7172
 Frc consts  --      1.6046                 1.6044                 1.6043
 IR Inten    --      0.4936                 0.8406                 0.3464

                     73                     74                     75
                      A                      A                      A
 Frequencies --   1280.9956              1284.5489              1286.7365
 Red. masses --      2.1937                 2.1595                 2.2027
 Frc consts  --      2.1209                 2.0995                 2.1488
 IR Inten    --      3.2944                 5.1383                 7.7167

                     76                     77                     78
                      A                      A                      A
 Frequencies --   1290.8649              1291.0760              1293.1635
 Red. masses --      2.2175                 2.2240                 2.1968
 Frc consts  --      2.1771                 2.1842                 2.1645
 IR Inten    --      4.2002                14.2533                 2.0331

                     79                     80                     81
                      A                      A                      A
 Frequencies --   1332.6321              1364.8763              1442.3661
 Red. masses --      1.1815                 1.0966                 1.0658
 Frc consts  --      1.2363                 1.2036                 1.3065
 IR Inten    --    198.0895               339.2865                 7.8379

                     82                     83                     84
                      A                      A                      A
 Frequencies --   1443.9268              1451.8983              1456.3260
 Red. masses --      1.0650                 1.1450                 1.1458
 Frc consts  --      1.3082                 1.4221                 1.4318
 IR Inten    --      7.0069                 3.6319                 5.3600

                     85                     86                     87
                      A                      A                      A
 Frequencies --   1458.1769              1460.9896              1461.8315
 Red. masses --      1.1474                 1.1495                 1.1492
 Frc consts  --      1.4374                 1.4457                 1.4469
 IR Inten    --      5.8543                 7.3690                 7.0600

                     88                     89                     90
                      A                      A                      A
 Frequencies --   1463.1173              1488.6797              1492.2644
 Red. masses --      1.1461                 1.0447                 1.0658
 Frc consts  --      1.4456                 1.3641                 1.3984
 IR Inten    --     10.4758                 1.3614                 0.4946

                     91                     92                     93
                      A                      A                      A
 Frequencies --   1495.5964              1496.9246              1497.6827
 Red. masses --      1.0602                 1.0697                 1.0964
 Frc consts  --      1.3972                 1.4123                 1.4489
 IR Inten    --      0.8272                 6.0030                 1.7293

                     94                     95                     96
                      A                      A                      A
 Frequencies --   1501.1264              1502.1619              1503.5715
 Red. masses --      1.0483                 1.0954                 1.1037
 Frc consts  --      1.3918                 1.4563                 1.4701
 IR Inten    --      0.4476                 4.7207                 0.7617

                     97                     98                     99
                      A                      A                      A
 Frequencies --   1506.0237              1507.6728              1510.0037
 Red. masses --      1.0638                 1.1127                 1.0567
 Frc consts  --      1.4215                 1.4901                 1.4196
 IR Inten    --      0.9863                 3.9158                 2.5404

                    100                    101                    102
                      A                      A                      A
 Frequencies --   1514.3804              1524.6289              1528.9361
 Red. masses --      1.0516                 1.0625                 1.0496
 Frc consts  --      1.4209                 1.4551                 1.4457
 IR Inten    --      0.7980                23.6099                 3.8712

                    103                    104                    105
                      A                      A                      A
 Frequencies --   1529.8047              1531.1694              1532.1830
 Red. masses --      1.0485                 1.0497                 1.0475
 Frc consts  --      1.4457                 1.4500                 1.4488
 IR Inten    --     13.4512                64.3359                66.2005

                    106                    107                    108
                      A                      A                      A
 Frequencies --   1538.7823              1541.5120              1543.4855
 Red. masses --      1.0473                 1.0489                 1.0466
 Frc consts  --      1.4611                 1.4685                 1.4690
 IR Inten    --     45.9440                38.0368                63.9652

                    109                    110                    111
                      A                      A                      A
 Frequencies --   1547.3216              1681.5615              1691.9678
 Red. masses --      1.0440                 1.0565                 1.0557
 Frc consts  --      1.4727                 1.7601                 1.7806
 IR Inten    --     20.4796                47.2178                37.1937

                    112                    113                    114
                      A                      A                      A
 Frequencies --   3064.1511              3066.3894              3069.2362
 Red. masses --      1.0353                 1.0353                 1.0364
 Frc consts  --      5.7272                 5.7354                 5.7522
 IR Inten    --      5.1816                 7.2246                11.3781

                    115                    116                    117
                      A                      A                      A
 Frequencies --   3070.0912              3070.6281              3072.2316
 Red. masses --      1.0360                 1.0353                 1.0370
 Frc consts  --      5.7534                 5.7513                 5.7666
 IR Inten    --      9.3571                15.3348                 8.7414

                    118                    119                    120
                      A                      A                      A
 Frequencies --   3075.1659              3080.9559              3081.3856
 Red. masses --      1.0379                 1.0425                 1.0408
 Frc consts  --      5.7828                 5.8302                 5.8227
 IR Inten    --     11.4745                12.8338                 7.7614

                    121                    122                    123
                      A                      A                      A
 Frequencies --   3089.8752              3150.7471              3151.3069
 Red. masses --      1.0224                 1.1037                 1.1031
 Frc consts  --      5.7509                 6.4557                 6.4540
 IR Inten    --      0.5431                 3.8551                 4.7407

                    124                    125                    126
                      A                      A                      A
 Frequencies --   3151.9115              3154.1366              3154.2986
 Red. masses --      1.1040                 1.1014                 1.1023
 Frc consts  --      6.4620                 6.4561                 6.4617
 IR Inten    --     10.9818                 5.6168                 8.0554

                    127                    128                    129
                      A                      A                      A
 Frequencies --   3154.8509              3164.4065              3179.5282
 Red. masses --      1.1029                 1.1015                 1.0967
 Frc consts  --      6.4674                 6.4987                 6.5322
 IR Inten    --      5.7419                 6.6024                 4.1073

                    130                    131                    132
                      A                      A                      A
 Frequencies --   3181.4967              3183.5409              3184.3410
 Red. masses --      1.0983                 1.1063                 1.1067
 Frc consts  --      6.5500                 6.6060                 6.6120
 IR Inten    --      3.5565                 2.7437                 9.7916

                    133                    134                    135
                      A                      A                      A
 Frequencies --   3189.6373              3190.5479              3192.7104
 Red. masses --      1.1048                 1.1049                 1.1051
 Frc consts  --      6.6225                 6.6267                 6.6371
 IR Inten    --     11.9057                 2.6578                17.3857

                    136                    137                    138
                      A                      A                      A
 Frequencies --   3196.3885              3209.3064              3223.4535
 Red. masses --      1.1051                 1.1054                 1.1057
 Frc consts  --      6.6521                 6.7078                 6.7689
 IR Inten    --      2.9063                 2.5522                 3.4820

                    139                    140                    141
                      A                      A                      A
 Frequencies --   3230.9887              3233.0562              3234.5250
 Red. masses --      1.1048                 1.1090                 1.1094
 Frc consts  --      6.7950                 6.8299                 6.8385
 IR Inten    --      2.3070                 0.1895                 0.0106

                    142                    143                    144
                      A                      A                      A
 Frequencies --   3508.4337              3614.4548              3624.4941
 Red. masses --      1.0320                 1.0881                 1.0885
 Frc consts  --      7.4844                 8.3752                 8.4250
 IR Inten    --     25.5334                29.6334                33.2887

 - Thermochemistry -
 -------------------
 Temperature   298.150 Kelvin.  Pressure   1.00000 Atm.
 Atom     1 has atomic number 26 and mass  55.93494

 Molecular mass:   282.20820 amu.
 Principal axes and moments of inertia in atomic units:
                           1         2         3
     Eigenvalues --  4304.199934684.494014959.12451
           X            1.00000   0.00025  -0.00028
           Y           -0.00026   0.99988  -0.01566
           Z            0.00028   0.01566   0.99988
 This molecule is an asymmetric top.
 Rotational symmetry number  1.
 Warning -- assumption of classical behavior for rotation
           may cause significant error
 Rotational temperatures (Kelvin)      0.02012     0.01849     0.01747
 Rotational constants (GHZ):           0.41930     0.38526     0.36392
    1 imaginary frequencies ignored.
 Zero-point vibrational energy    1207063.5 (Joules/Mol)
                                  288.49510 (Kcal/Mol)
 Warning -- explicit consideration of  47 degrees of freedom as
           vibrations may cause significant error
 Vibrational temperatures:     11.16    36.07    45.71    58.44    75.09
          (Kelvin)            103.84   129.89   141.06   203.29   218.58
                              233.19   243.85   268.89   279.47   283.76
                              296.41   308.61   319.80   348.02   362.88
                              367.04   376.26   389.27   397.56   407.62
                              430.29   451.38   467.50   471.67   489.53
                              493.94   506.86   545.57   560.42   568.41
                              625.82   629.68   634.24   638.82   643.75
                              645.64   684.00   746.02   760.09   763.56
                              843.23   858.30  1213.77  1215.81  1220.78
                             1468.25  1471.32  1475.38  1485.49  1486.96
                             1488.64  1544.80  1548.21  1549.76  1562.27
                             1610.49  1611.45  1614.46  1617.74  1623.19
                             1625.36  1684.75  1692.61  1802.34  1805.09
                             1811.72  1843.06  1848.18  1851.32  1857.26
                             1857.57  1860.57  1917.36  1963.75  2075.24
                             2077.49  2088.96  2095.33  2097.99  2102.04
                             2103.25  2105.10  2141.88  2147.03  2151.83
                             2153.74  2154.83  2159.78  2161.27  2163.30
                             2166.83  2169.20  2172.56  2178.85  2193.60
                             2199.80  2201.04  2203.01  2204.47  2213.96
                             2217.89  2220.73  2226.25  2419.39  2434.36
                             4408.62  4411.84  4415.94  4417.17  4417.94
                             4420.25  4424.47  4432.80  4433.42  4445.64
                             4533.22  4534.02  4534.89  4538.09  4538.33
                             4539.12  4552.87  4574.63  4577.46  4580.40
                             4581.55  4589.17  4590.48  4593.59  4598.88
                             4617.47  4637.82  4648.67  4651.64  4653.75
                             5047.85  5200.39  5214.83

 Zero-point correction=                           0.459746 (Hartree/Particle)
 Thermal correction to Energy=                    0.485813
 Thermal correction to Enthalpy=                  0.486758
 Thermal correction to Gibbs Free Energy=         0.402276
 Sum of electronic and zero-point Energies=           -818.013094
 Sum of electronic and thermal Energies=              -817.987026
 Sum of electronic and thermal Enthalpies=            -817.986082
 Sum of electronic and thermal Free Energies=         -818.070564

                     E (Thermal)             CV                S
                      KCal/Mol        Cal/Mol-Kelvin    Cal/Mol-Kelvin
 Total                  304.852             94.566            177.807
 Electronic               0.000              0.000              3.198
 Translational            0.889              2.981             42.811
 Rotational               0.889              2.981             32.969
 Vibrational            303.075             88.604             98.829
 Vibration     1          0.593              1.987              8.516
 Vibration     2          0.593              1.985              6.186
 Vibration     3          0.594              1.983              5.716
 Vibration     4          0.594              1.981              5.229
 Vibration     5          0.596              1.977              4.733
 Vibration     6          0.598              1.967              4.093
 Vibration     7          0.602              1.956              3.654
 Vibration     8          0.603              1.951              3.493
 Vibration     9          0.615              1.912              2.786
 Vibration    10          0.619              1.901              2.648
 Vibration    11          0.622              1.889              2.525
 Vibration    12          0.625              1.880              2.441
 Vibration    13          0.632              1.858              2.258
 Vibration    14          0.635              1.848              2.187
 Vibration    15          0.637              1.844              2.159
 Vibration    16          0.641              1.831              2.079
 Vibration    17          0.644              1.819              2.005
 Vibration    18          0.648              1.807              1.940
 Vibration    19          0.658              1.776              1.789
 Vibration    20          0.664              1.759              1.715
 Vibration    21          0.665              1.754              1.695
 Vibration    22          0.669              1.743              1.652
 Vibration    23          0.674              1.727              1.593
 Vibration    24          0.678              1.717              1.556
 Vibration    25          0.682              1.705              1.514
 Vibration    26          0.692              1.675              1.422
 Vibration    27          0.702              1.647              1.343
 Vibration    28          0.709              1.626              1.285
 Vibration    29          0.711              1.620              1.271
 Vibration    30          0.720              1.595              1.211
 Vibration    31          0.722              1.589              1.197
 Vibration    32          0.729              1.571              1.156
 Vibration    33          0.749              1.515              1.042
 Vibration    34          0.757              1.493              1.002
 Vibration    35          0.762              1.481              0.981
 Vibration    36          0.796              1.394              0.843
 Vibration    37          0.798              1.388              0.834
 Vibration    38          0.801              1.381              0.824
 Vibration    39          0.804              1.374              0.814
 Vibration    40          0.807              1.367              0.804
 Vibration    41          0.808              1.364              0.800
 Vibration    42          0.832              1.305              0.723
 Vibration    43          0.874              1.209              0.613
 Vibration    44          0.883              1.187              0.591
 Vibration    45          0.886              1.182              0.586
 Vibration    46          0.943              1.062              0.474
 Vibration    47          0.954              1.039              0.456

 Optimization completed on the basis of negligible forces.
    -- Stationary point found.
 Normal termination of Gaussian 16 at Sun Nov 18 03:38:32 2018.
