 Gaussian 16, Revision A.03,
 Gaussian 16:  ES64L-G16RevA.03 25-Dec-2016

 ----------------------------------------------------------------------
 #wb97xd/gen pseudo opt=(maxcycle=1024) freq=noraman int=ultrafine 6d g
 09defaults
 ----------------------------------------------------------------------

 -------------------
 Title Card Required
 -------------------
 Symbolic Z-matrix:
 Charge =  2 Multiplicity = 5

 SCF Done:  E(UwB97XD) =  -777.970425334     A.U. after   32 cycles
 SCF Done:  E(UwB97XD) =  -777.978461534     A.U. after   23 cycles
 SCF Done:  E(UwB97XD) =  -777.980272340     A.U. after   22 cycles
 SCF Done:  E(UwB97XD) =  -777.980817250     A.U. after   21 cycles
 SCF Done:  E(UwB97XD) =  -777.981067684     A.U. after   19 cycles
 SCF Done:  E(UwB97XD) =  -777.981225496     A.U. after   18 cycles
 SCF Done:  E(UwB97XD) =  -777.981276447     A.U. after   19 cycles
 SCF Done:  E(UwB97XD) =  -777.981305573     A.U. after   17 cycles
 SCF Done:  E(UwB97XD) =  -777.981334426     A.U. after   17 cycles
 SCF Done:  E(UwB97XD) =  -777.981357340     A.U. after   18 cycles
 SCF Done:  E(UwB97XD) =  -777.981459045     A.U. after   17 cycles
 SCF Done:  E(UwB97XD) =  -777.981461326     A.U. after   15 cycles
 SCF Done:  E(UwB97XD) =  -777.981462889     A.U. after   16 cycles
 SCF Done:  E(UwB97XD) =  -777.981463354     A.U. after   15 cycles
 SCF Done:  E(UwB97XD) =  -777.981463786     A.U. after   13 cycles
 SCF Done:  E(UwB97XD) =  -777.981464187     A.U. after   12 cycles
 SCF Done:  E(UwB97XD) =  -777.981464412     A.U. after   15 cycles
 SCF Done:  E(UwB97XD) =  -777.981464558     A.U. after   14 cycles
 SCF Done:  E(UwB97XD) =  -777.981464666     A.U. after   12 cycles
 Optimization completed.
    -- Stationary point found.
 Normal termination of Gaussian 16 at Mon Oct 15 21:15:42 2018.

 -------------------------------------------------------------------
 #N Geom=AllCheck Guess=TCheck SCRF=Check GenChk UwB97XD/ChkBas Freq
 -------------------------------------------------------------------

 Structure from the checkpoint file:  "w10.chk"
 -------------------
 Title Card Required
 -------------------
 Charge =  2 Multiplicity = 5

                         Standard orientation:
 ---------------------------------------------------------------------
 Center     Atomic      Atomic             Coordinates (Angstroms)
 Number     Number       Type             X           Y           Z
 ---------------------------------------------------------------------
      1         26           0        0.035770   -0.047315   -0.012360
      2          7           0       -0.477815    2.038579   -0.035652
      3          7           0        0.055400   -0.154884    2.107076
      4          7           0       -1.687026   -1.344787   -0.075040
      5          7           0        2.119667   -0.608367   -0.069185
      6          8           0        0.064845   -0.041881   -1.605588
      7          6           0        2.899478   -0.226395    1.134486
      8          1           0        3.958079   -0.459305    0.982434
      9          1           0        2.814433    0.848195    1.314445
     10          1           0        2.565695   -0.789139    2.006930
     11          6           0        2.810292   -0.035599   -1.260104
     12          1           0        2.890048    1.045651   -1.154280
     13          1           0        3.818331   -0.456129   -1.328963
     14          1           0        2.254468   -0.274109   -2.164697
     15          6           0        2.116573   -2.088860   -0.199167
     16          1           0        3.143970   -2.465945   -0.238151
     17          1           0        1.618384   -2.542840    0.660532
     18          1           0        1.607974   -2.370011   -1.122518
     19          6           0       -2.317574   -1.329523   -1.426282
     20          1           0       -1.590694   -1.630595   -2.178093
     21          1           0       -3.165619   -2.021180   -1.437750
     22          1           0       -2.672251   -0.326030   -1.657544
     23          6           0       -1.265882   -2.737001    0.224045
     24          1           0       -0.780812   -2.791288    1.201254
     25          1           0       -2.139112   -3.397725    0.242419
     26          1           0       -0.583585   -3.089058   -0.549494
     27          6           0       -2.707606   -0.921052    0.916649
     28          1           0       -2.922214    0.143989    0.807081
     29          1           0       -3.639196   -1.472867    0.755813
     30          1           0       -2.373391   -1.138047    1.931762
     31          6           0        0.736833    2.747614   -0.515999
     32          1           0        0.550149    3.825658   -0.560468
     33          1           0        1.565712    2.571922    0.174765
     34          1           0        0.994951    2.389996   -1.512650
     35          6           0       -1.582311    2.272533   -1.004702
     36          1           0       -2.495890    1.796351   -0.644607
     37          1           0       -1.768803    3.347088   -1.099911
     38          1           0       -1.311577    1.863530   -1.977030
     39          6           0       -0.874581    2.600550    1.277451
     40          1           0       -0.049811    2.529679    1.988520
     41          1           0       -1.130956    3.659528    1.169995
     42          1           0       -1.754987    2.080749    1.661549
     43          1           0        0.212261   -1.098096    2.463785
     44          1           0        0.786672    0.417479    2.527427
     45          1           0       -0.813920    0.160379    2.534849
 ---------------------------------------------------------------------

 SCF Done:  E(UwB97XD) =  -777.981464666     A.U. after    1 cycles

 The electronic state is 5-A.
 Alpha  occ. eigenvalues --  -19.58940 -14.79334 -14.79310 -14.79257 -14.79194
 Alpha  occ. eigenvalues --  -10.59772 -10.59652 -10.59618 -10.59292 -10.59099
 Alpha  occ. eigenvalues --  -10.58754 -10.58085 -10.57475 -10.57411  -4.07300
 Alpha  occ. eigenvalues --   -2.85430  -2.84911  -2.83522  -1.34211  -1.32554
 Alpha  occ. eigenvalues --   -1.32524  -1.31912  -1.30608  -1.09099  -1.08841
 Alpha  occ. eigenvalues --   -1.08538  -1.08083  -1.07598  -1.07423  -0.97670
 Alpha  occ. eigenvalues --   -0.97212  -0.97163  -0.90436  -0.90259  -0.87535
 Alpha  occ. eigenvalues --   -0.86566  -0.86385  -0.84423  -0.84156  -0.83935
 Alpha  occ. eigenvalues --   -0.83711  -0.83448  -0.83021  -0.82281  -0.81911
 Alpha  occ. eigenvalues --   -0.81301  -0.79391  -0.79200  -0.76073  -0.75593
 Alpha  occ. eigenvalues --   -0.75378  -0.75094  -0.74985  -0.74710  -0.73601
 Alpha  occ. eigenvalues --   -0.73242  -0.72993  -0.72932  -0.72523  -0.72461
 Alpha  occ. eigenvalues --   -0.71888  -0.71726  -0.71333  -0.70540  -0.68051
 Alpha  occ. eigenvalues --   -0.67365  -0.66827  -0.62310  -0.61576
 Alpha virt. eigenvalues --   -0.33102  -0.18870  -0.14994  -0.14569  -0.13635
 Alpha virt. eigenvalues --   -0.10443  -0.10019  -0.09214  -0.08954  -0.07615
 Alpha virt. eigenvalues --   -0.07159  -0.06046  -0.05305  -0.04735  -0.03888

  Beta  occ. eigenvalues --  -19.57223 -14.79278 -14.79180 -14.79131 -14.78955
  Beta  occ. eigenvalues --  -10.59772 -10.59655 -10.59622 -10.59290 -10.59095
  Beta  occ. eigenvalues --  -10.58750 -10.58082 -10.57470 -10.57408  -3.90418
  Beta  occ. eigenvalues --   -2.69076  -2.65419  -2.65283  -1.32905  -1.32237
  Beta  occ. eigenvalues --   -1.32180  -1.30597  -1.27522  -1.09026  -1.08762
  Beta  occ. eigenvalues --   -1.08464  -1.07981  -1.07522  -1.07340  -0.97428
  Beta  occ. eigenvalues --   -0.96912  -0.96857  -0.90240  -0.90013  -0.86879
  Beta  occ. eigenvalues --   -0.84757  -0.84540  -0.83663  -0.83578  -0.83388
  Beta  occ. eigenvalues --   -0.83360  -0.83149  -0.82766  -0.79142  -0.76335
  Beta  occ. eigenvalues --   -0.76258  -0.75577  -0.75317  -0.75192  -0.75037
  Beta  occ. eigenvalues --   -0.73574  -0.72998  -0.72926  -0.72732  -0.72421
  Beta  occ. eigenvalues --   -0.72156  -0.71629  -0.71547  -0.70709  -0.70445
  Beta  occ. eigenvalues --   -0.68176  -0.67198  -0.66641  -0.65234  -0.64655
  Beta virt. eigenvalues --   -0.32022  -0.31841  -0.31186  -0.30896  -0.25675
  Beta virt. eigenvalues --   -0.18701  -0.14950  -0.14535  -0.13428  -0.09996
  Beta virt. eigenvalues --   -0.09290  -0.09040  -0.08661  -0.07438  -0.06984

 Mulliken charges and spin densities:
               1          2
     1  Fe   0.855585   3.005322
     2  N   -0.548238   0.102108
     3  N   -0.762938  -0.014559
     4  N   -0.545705   0.077446
     5  N   -0.536761   0.065939
     6  O   -0.411945   0.725259
     7  C   -0.236798  -0.003336
     8  H    0.219472   0.002865
     9  H    0.167824   0.000405
    10  H    0.150514   0.000151
    11  C   -0.226495   0.005018
    12  H    0.164167   0.000227
    13  H    0.196187   0.000744
    14  H    0.207489  -0.000454
    15  C   -0.231649  -0.002292
    16  H    0.212853   0.005956
    17  H    0.150652   0.000516
    18  H    0.199257   0.000611
    19  C   -0.216217   0.003258
    20  H    0.201213   0.000159
    21  H    0.192908   0.000463
    22  H    0.170146   0.000207
    23  C   -0.225270  -0.003503
    24  H    0.141204   0.000587
    25  H    0.214064   0.005578
    26  H    0.188348   0.000620
    27  C   -0.227827  -0.003312
    28  H    0.161308   0.000540
    29  H    0.220155   0.004239
    30  H    0.149447   0.000040
    31  C   -0.228121  -0.000515
    32  H    0.208677   0.006211
    33  H    0.152936   0.000647
    34  H    0.202765   0.000461
    35  C   -0.229028   0.002633
    36  H    0.155802   0.000510
    37  H    0.203261   0.003735
    38  H    0.207450  -0.000062
    39  C   -0.228437  -0.004201
    40  H    0.153764   0.000367
    41  H    0.217441   0.004709
    42  H    0.158586   0.000502
    43  H    0.346517   0.001428
    44  H    0.344291   0.001312
    45  H    0.341146   0.001463
 Sum of Mulliken charges =   2.00000   4.00000

 Dipole moment (field-independent basis, Debye):
    X=              0.0816    Y=             -0.2566    Z=              4.9323  Tot=              4.9397
 Quadrupole moment (field-independent basis, Debye-Ang):
   XX=            -56.1572   YY=            -60.2655   ZZ=            -78.6720
   XY=             -0.0864   XZ=              0.2586   YZ=             -0.6767

  Exact polarizability: 176.189   0.215 167.755  -0.141  -0.556 137.037
 Approx polarizability: 172.678   0.327 166.892  -0.444  -0.599 182.757

                      1                      2                      3
                      A                      A                      A
 Frequencies --     31.3174                58.1911                78.6003
 Red. masses --      2.7824                 2.8014                 2.8841
 Frc consts  --      0.0016                 0.0056                 0.0105
 IR Inten    --      0.2078                 0.3293                 0.2612

                      4                      5                      6
                      A                      A                      A
 Frequencies --    101.0727               106.9979               156.7606
 Red. masses --      4.2053                 4.0854                 4.3813
 Frc consts  --      0.0253                 0.0276                 0.0634
 IR Inten    --      0.0759                 0.1345                 0.2961

                      7                      8                      9
                      A                      A                      A
 Frequencies --    161.9664               170.8976               184.0059
 Red. masses --      2.6004                 2.9718                 2.9678
 Frc consts  --      0.0402                 0.0511                 0.0592
 IR Inten    --      0.3376                 0.5169                 0.8111

                     10                     11                     12
                      A                      A                      A
 Frequencies --    198.4945               202.7817               209.0279
 Red. masses --      1.4575                 2.4845                 2.0662
 Frc consts  --      0.0338                 0.0602                 0.0532
 IR Inten    --      0.8806                 2.7146                 1.5638

                     13                     14                     15
                      A                      A                      A
 Frequencies --    217.3724               235.3152               238.9684
 Red. masses --      3.2914                 1.8022                 2.8740
 Frc consts  --      0.0916                 0.0588                 0.0967
 IR Inten    --      0.1842                 6.9576                 0.9526

                     16                     17                     18
                      A                      A                      A
 Frequencies --    254.0349               267.0035               270.5849
 Red. masses --      1.5961                 1.8985                 2.3056
 Frc consts  --      0.0607                 0.0797                 0.0995
 IR Inten    --      2.8364                 9.3374                 2.0987

                     19                     20                     21
                      A                      A                      A
 Frequencies --    287.2198               291.4226               295.9857
 Red. masses --      1.3412                 3.5810                 2.3272
 Frc consts  --      0.0652                 0.1792                 0.1201
 IR Inten    --      1.4206                10.2026                 2.2577

                     22                     23                     24
                      A                      A                      A
 Frequencies --    306.9223               328.5970               332.7315
 Red. masses --      1.9166                 1.1092                 3.0470
 Frc consts  --      0.1064                 0.0706                 0.1987
 IR Inten    --      1.0671                 0.5730                 3.0680

                     25                     26                     27
                      A                      A                      A
 Frequencies --    337.2380               351.9995               357.0228
 Red. masses --      1.1446                 1.1869                 1.2010
 Frc consts  --      0.0767                 0.0866                 0.0902
 IR Inten    --      0.0418                 0.3218                 0.2026

                     28                     29                     30
                      A                      A                      A
 Frequencies --    364.9193               368.0688               386.0890
 Red. masses --      1.3338                 2.7344                 1.0946
 Frc consts  --      0.1046                 0.2183                 0.0961
 IR Inten    --      1.5446                 0.3533                 0.6775

                     31                     32                     33
                      A                      A                      A
 Frequencies --    437.4566               440.4978               444.8482
 Red. masses --      2.2622                 2.3050                 2.3045
 Frc consts  --      0.2551                 0.2635                 0.2687
 IR Inten    --      0.1984                 0.1032                 0.3039

                     34                     35                     36
                      A                      A                      A
 Frequencies --    447.9775               448.5612               451.1650
 Red. masses --      2.2868                 2.2972                 2.3866
 Frc consts  --      0.2704                 0.2723                 0.2862
 IR Inten    --      0.1471                 0.0282                 0.2866

                     37                     38                     39
                      A                      A                      A
 Frequencies --    526.9206               532.6026               535.6672
 Red. masses --      2.3239                 2.2876                 2.2782
 Frc consts  --      0.3802                 0.3823                 0.3852
 IR Inten    --      5.7038                 5.3636                 0.5892

                     40                     41                     42
                      A                      A                      A
 Frequencies --    646.3550               650.3908               839.0409
 Red. masses --      1.2031                 1.1841                 3.5543
 Frc consts  --      0.2961                 0.2951                 1.4742
 IR Inten    --     52.0873                43.6732                47.7692

                     43                     44                     45
                      A                      A                      A
 Frequencies --    840.1132               848.6108              1000.4596
 Red. masses --      3.5716                 3.5968                15.6800
 Frc consts  --      1.4852                 1.5261                 9.2469
 IR Inten    --     47.9196                 2.7903                11.3928

                     46                     47                     48
                      A                      A                      A
 Frequencies --   1010.8960              1013.1468              1018.7006
 Red. masses --      2.3701                 2.3989                 2.3477
 Frc consts  --      1.4270                 1.4508                 1.4354
 IR Inten    --      1.4308                38.8507                21.8768

                     49                     50                     51
                      A                      A                      A
 Frequencies --   1025.8836              1028.2454              1029.3940
 Red. masses --      2.2397                 2.2387                 2.2259
 Frc consts  --      1.3888                 1.3945                 1.3897
 IR Inten    --     12.9713                23.5008                18.9807

                     52                     53                     54
                      A                      A                      A
 Frequencies --   1072.7064              1075.6283              1077.6920
 Red. masses --      1.2012                 1.1973                 1.1979
 Frc consts  --      0.8143                 0.8161                 0.8197
 IR Inten    --      0.1471                 0.7378                 0.4007

                     55                     56                     57
                      A                      A                      A
 Frequencies --   1118.2284              1121.0365              1121.9302
 Red. masses --      1.2863                 1.2797                 1.2838
 Frc consts  --      0.9476                 0.9476                 0.9521
 IR Inten    --      0.3050                 2.7223                 4.0783

                     58                     59                     60
                      A                      A                      A
 Frequencies --   1125.9585              1128.0139              1129.6493
 Red. masses --      1.2869                 1.2806                 1.2796
 Frc consts  --      0.9613                 0.9601                 0.9621
 IR Inten    --      1.7999                 1.4244                 3.8364

                     61                     62                     63
                      A                      A                      A
 Frequencies --   1252.6443              1253.7959              1259.9838
 Red. masses --      1.7260                 1.7268                 1.7189
 Frc consts  --      1.5957                 1.5994                 1.6078
 IR Inten    --      3.5364                 4.8708                 0.9787

                     64                     65                     66
                      A                      A                      A
 Frequencies --   1278.0942              1281.1206              1284.0163
 Red. masses --      2.1642                 2.1429                 2.1880
 Frc consts  --      2.0829                 2.0722                 2.1254
 IR Inten    --      1.9106                 7.3275                10.6495

                     67                     68                     69
                      A                      A                      A
 Frequencies --   1285.4539              1287.2473              1290.2430
 Red. masses --      2.1696                 2.1964                 2.1723
 Frc consts  --      2.1122                 2.1443                 2.1306
 IR Inten    --      3.2177                 9.0800                 1.5479

                     70                     71                     72
                      A                      A                      A
 Frequencies --   1358.3438              1452.3025              1457.1465
 Red. masses --      1.1812                 1.1431                 1.1418
 Frc consts  --      1.2841                 1.4205                 1.4284
 IR Inten    --    165.5901                 2.7403                 8.5304

                     73                     74                     75
                      A                      A                      A
 Frequencies --   1458.8030              1460.0673              1461.2734
 Red. masses --      1.1442                 1.1469                 1.1453
 Frc consts  --      1.4346                 1.4406                 1.4409
 IR Inten    --      7.1539                19.0728                 3.7188

                     76                     77                     78
                      A                      A                      A
 Frequencies --   1462.9552              1487.3320              1489.5099
 Red. masses --      1.1435                 1.0426                 1.0682
 Frc consts  --      1.4420                 1.3589                 1.3963
 IR Inten    --     24.9825                 0.5067                 0.4751

                     79                     80                     81
                      A                      A                      A
 Frequencies --   1495.0636              1495.7678              1497.7603
 Red. masses --      1.0578                 1.1075                 1.0687
 Frc consts  --      1.3931                 1.4599                 1.4125
 IR Inten    --      1.7103                 4.9387                 4.6258

                     82                     83                     84
                      A                      A                      A
 Frequencies --   1500.3106              1502.2757              1503.7740
 Red. masses --      1.0583                 1.0715                 1.0914
 Frc consts  --      1.4035                 1.4248                 1.4541
 IR Inten    --      2.3311                 1.7794                 3.0382

                     85                     86                     87
                      A                      A                      A
 Frequencies --   1506.7079              1507.0189              1509.7138
 Red. masses --      1.1293                 1.0477                 1.0547
 Frc consts  --      1.5105                 1.4019                 1.4163
 IR Inten    --      7.4260                 5.8314                 2.8011

                     88                     89                     90
                      A                      A                      A
 Frequencies --   1513.5880              1524.6792              1528.0591
 Red. masses --      1.0638                 1.0594                 1.0531
 Frc consts  --      1.4359                 1.4510                 1.4487
 IR Inten    --      1.0149                22.3342                 9.1249

                     91                     92                     93
                      A                      A                      A
 Frequencies --   1530.5145              1531.8395              1538.1154
 Red. masses --      1.0492                 1.0493                 1.0469
 Frc consts  --      1.4481                 1.4507                 1.4593
 IR Inten    --     58.5157                52.0517                30.1992

                     94                     95                     96
                      A                      A                      A
 Frequencies --   1539.3735              1540.9050              1544.9592
 Red. masses --      1.0483                 1.0471                 1.0467
 Frc consts  --      1.4636                 1.4649                 1.4719
 IR Inten    --     34.0799                89.2919                53.8102

                     97                     98                     99
                      A                      A                      A
 Frequencies --   1546.4403              1671.5019              1681.9607
 Red. masses --      1.0447                 1.0550                 1.0547
 Frc consts  --      1.4719                 1.7367                 1.7579
 IR Inten    --     11.1417                29.6672                57.5594

                    100                    101                    102
                      A                      A                      A
 Frequencies --   3068.9727              3069.4827              3073.4482
 Red. masses --      1.0348                 1.0345                 1.0367
 Frc consts  --      5.7424                 5.7428                 5.7700
 IR Inten    --      4.2007                 4.0695                 9.9893

                    103                    104                    105
                      A                      A                      A
 Frequencies --   3074.1424              3075.5049              3078.1393
 Red. masses --      1.0349                 1.0350                 1.0363
 Frc consts  --      5.7622                 5.7680                 5.7851
 IR Inten    --      4.8637                11.4039                 3.3817

                    106                    107                    108
                      A                      A                      A
 Frequencies --   3080.7273              3085.7715              3087.1023
 Red. masses --      1.0367                 1.0400                 1.0392
 Frc consts  --      5.7970                 5.8343                 5.8351
 IR Inten    --     11.6111                 6.3912                 4.9548

                    109                    110                    111
                      A                      A                      A
 Frequencies --   3153.6576              3156.2312              3158.3233
 Red. masses --      1.1050                 1.1035                 1.1036
 Frc consts  --      6.4749                 6.4768                 6.4857
 IR Inten    --      6.2342                 6.0543                 1.9558

                    112                    113                    114
                      A                      A                      A
 Frequencies --   3158.6178              3158.8877              3163.4181
 Red. masses --      1.1035                 1.1023                 1.1019
 Frc consts  --      6.4869                 6.4807                 6.4971
 IR Inten    --      1.6885                10.6678                 5.3625

                    115                    116                    117
                      A                      A                      A
 Frequencies --   3170.1811              3185.1056              3187.8987
 Red. masses --      1.1016                 1.0990                 1.1064
 Frc consts  --      6.5229                 6.5689                 6.6246
 IR Inten    --      6.1759                 2.0682                 6.8732

                    118                    119                    120
                      A                      A                      A
 Frequencies --   3188.0944              3188.8428              3191.0270
 Red. masses --      1.0992                 1.1067                 1.1063
 Frc consts  --      6.5828                 6.6307                 6.6369
 IR Inten    --      2.4877                 1.2600                11.2612

                    121                    122                    123
                      A                      A                      A
 Frequencies --   3195.1344              3200.7567              3202.6700
 Red. masses --      1.1059                 1.1055                 1.1047
 Frc consts  --      6.6520                 6.6728                 6.6762
 IR Inten    --      9.4572                 1.4098                 6.5578

                    124                    125                    126
                      A                      A                      A
 Frequencies --   3210.2403              3223.5885              3224.5074
 Red. masses --      1.1066                 1.1074                 1.1071
 Frc consts  --      6.7192                 6.7803                 6.7820
 IR Inten    --      1.5165                 1.7817                 1.9611

                    127                    128                    129
                      A                      A                      A
 Frequencies --   3499.5589              3602.1204              3612.6301
 Red. masses --      1.0324                 1.0886                 1.0885
 Frc consts  --      7.4495                 8.3224                 8.3703
 IR Inten    --     26.2130                35.1314                39.0351

 - Thermochemistry -
 -------------------
 Temperature   298.150 Kelvin.  Pressure   1.00000 Atm.
 Atom     1 has atomic number 26 and mass  55.93494

 Molecular mass:   266.17690 amu.
 Principal axes and moments of inertia in atomic units:
                           1         2         3
     Eigenvalues --  3233.947263561.111024818.89720
           X            1.00000  -0.00003   0.00064
           Y            0.00003   1.00000  -0.00095
           Z           -0.00064   0.00095   1.00000
 This molecule is an asymmetric top.
 Rotational symmetry number  1.
 Warning -- assumption of classical behavior for rotation
           may cause significant error
 Rotational temperatures (Kelvin)      0.02678     0.02432     0.01797
 Rotational constants (GHZ):           0.55806     0.50679     0.37451
 Zero-point vibrational energy    1105557.8 (Joules/Mol)
                                  264.23466 (Kcal/Mol)
 Warning -- explicit consideration of  39 degrees of freedom as
           vibrations may cause significant error
 Vibrational temperatures:     45.06    83.72   113.09   145.42   153.95
          (Kelvin)            225.54   233.03   245.88   264.74   285.59
                              291.76   300.74   312.75   338.57   343.82
                              365.50   384.16   389.31   413.24   419.29
                              425.86   441.59   472.78   478.73   485.21
                              506.45   513.68   525.04   529.57   555.50
                              629.40   633.78   640.04   644.54   645.38
                              649.13   758.12   766.30   770.70   929.96
                              935.77  1207.19  1208.73  1220.96  1439.44
                             1454.45  1457.69  1465.68  1476.02  1479.41
                             1481.07  1543.38  1547.59  1550.56  1608.88
                             1612.92  1614.21  1620.00  1622.96  1625.31
                             1802.27  1803.93  1812.83  1838.89  1843.24
                             1847.41  1849.48  1852.06  1856.37  1954.35
                             2089.54  2096.51  2098.89  2100.71  2102.44
                             2104.86  2139.94  2143.07  2151.06  2152.07
                             2154.94  2158.61  2161.44  2163.59  2167.81
                             2168.26  2172.14  2177.71  2193.67  2198.53
                             2202.07  2203.97  2213.00  2214.81  2217.02
                             2222.85  2224.98  2404.92  2419.96  4415.56
                             4416.30  4422.00  4423.00  4424.96  4428.75
                             4432.47  4439.73  4441.65  4537.40  4541.11
                             4544.12  4544.54  4544.93  4551.45  4561.18
                             4582.65  4586.67  4586.95  4588.03  4591.17
                             4597.08  4605.17  4607.92  4618.81  4638.02
                             4639.34  5035.08  5182.64  5197.76

 Zero-point correction=                           0.421085 (Hartree/Particle)
 Thermal correction to Energy=                    0.442870
 Thermal correction to Enthalpy=                  0.443814
 Thermal correction to Gibbs Free Energy=         0.372301
 Sum of electronic and zero-point Energies=           -777.560380
 Sum of electronic and thermal Energies=              -777.538594
 Sum of electronic and thermal Enthalpies=            -777.537650
 Sum of electronic and thermal Free Energies=         -777.609164

                     E (Thermal)             CV                S
                      KCal/Mol        Cal/Mol-Kelvin    Cal/Mol-Kelvin
 Total                  277.905             82.692            150.513
 Electronic               0.000              0.000              3.198
 Translational            0.889              2.981             42.636
 Rotational               0.889              2.981             32.384
 Vibrational            276.128             76.730             72.294
 Vibration     1          0.594              1.983              5.744
 Vibration     2          0.596              1.974              4.518
 Vibration     3          0.600              1.964              3.926
 Vibration     4          0.604              1.948              3.434
 Vibration     5          0.606              1.944              3.323
 Vibration     6          0.620              1.895              2.589
 Vibration     7          0.622              1.889              2.527
 Vibration     8          0.626              1.878              2.426
 Vibration     9          0.631              1.862              2.287
 Vibration    10          0.637              1.842              2.147
 Vibration    11          0.639              1.836              2.108
 Vibration    12          0.642              1.827              2.052
 Vibration    13          0.646              1.815              1.981
 Vibration    14          0.655              1.787              1.838
 Vibration    15          0.657              1.781              1.811
 Vibration    16          0.665              1.756              1.702
 Vibration    17          0.672              1.734              1.616
 Vibration    18          0.674              1.727              1.592
 Vibration    19          0.684              1.697              1.490
 Vibration    20          0.687              1.690              1.466
 Vibration    21          0.690              1.681              1.440
 Vibration    22          0.697              1.661              1.379
 Vibration    23          0.712              1.618              1.267
 Vibration    24          0.715              1.610              1.247
 Vibration    25          0.718              1.601              1.225
 Vibration    26          0.729              1.571              1.157
 Vibration    27          0.732              1.561              1.135
 Vibration    28          0.738              1.544              1.101
 Vibration    29          0.741              1.538              1.088
 Vibration    30          0.755              1.500              1.015
 Vibration    31          0.798              1.389              0.835
 Vibration    32          0.800              1.382              0.825
 Vibration    33          0.804              1.372              0.812
 Vibration    34          0.807              1.365              0.802
 Vibration    35          0.808              1.364              0.800
 Vibration    36          0.810              1.358              0.792
 Vibration    37          0.882              1.190              0.594
 Vibration    38          0.888              1.178              0.581
 Vibration    39          0.891              1.171              0.575

                           ! Non-Optimized Parameters !
 Normal termination of Gaussian 16 at Mon Oct 15 21:37:48 2018.
