 Gaussian 09, Revision D.01,
 Gaussian 09:  EM64L-G09RevD.01 24-Apr-2013

 --------------------------------------------------------------------
 #wb97xd/6-31g(d,p) opt=(maxcycle=1024) freq=noraman int=ultrafine 6d
 --------------------------------------------------------------------

 -------------------
 Title Card Required
 -------------------
 Symbolic Z-matrix:
 Charge =  0 Multiplicity = 1

 SCF Done:  E(RwB97XD) =  -40.5059499740     A.U. after   11 cycles
 SCF Done:  E(RwB97XD) =  -40.5071430710     A.U. after   10 cycles
 Optimization completed.
    -- Stationary point found.
 Normal termination of Gaussian 09 at Mon Nov 12 02:10:11 2018.

 ----------------------------------------------------------------------
 #N Geom=AllCheck Guess=TCheck SCRF=Check GenChk RwB97XD/6-31G(d,p) Fre
 q
 ----------------------------------------------------------------------

 Structure from the checkpoint file:  "wmethane.chk"
 -------------------
 Title Card Required
 -------------------
 Charge =  0 Multiplicity = 1

                         Standard orientation:
 ---------------------------------------------------------------------
 Center     Atomic      Atomic             Coordinates (Angstroms)
 Number     Number       Type             X           Y           Z
 ---------------------------------------------------------------------
      1          6           0        0.000000    0.000000    0.000000
      2          1           0        0.630135    0.630135    0.630135
      3          1           0       -0.630135   -0.630135    0.630135
      4          1           0       -0.630135    0.630135   -0.630135
      5          1           0        0.630135   -0.630135   -0.630135
 ---------------------------------------------------------------------

 SCF Done:  E(RwB97XD) =  -40.5071430710     A.U. after    1 cycles

 The electronic state is 1-A1.
 Alpha  occ. eigenvalues --  -10.27592  -0.78741  -0.47184  -0.47184  -0.47184
 Alpha virt. eigenvalues --    0.20453   0.26042   0.26042   0.26042   0.61845
 Alpha virt. eigenvalues --    0.61845   0.61845   0.97348   0.97348   0.97348
 Alpha virt. eigenvalues --    1.02263   1.18752   1.44654   1.44654   2.13936

 Mulliken charges:
               1
     1  C   -0.536198
     2  H    0.134050
     3  H    0.134050
     4  H    0.134050
     5  H    0.134050
 Sum of Mulliken charges =   0.00000

 Dipole moment (field-independent basis, Debye):
    X=              0.0000    Y=              0.0000    Z=              0.0000  Tot=              0.0000
 Quadrupole moment (field-independent basis, Debye-Ang):
   XX=             -8.2062   YY=             -8.2062   ZZ=             -8.2062
   XY=              0.0000   XZ=              0.0000   YZ=              0.0000

  Exact polarizability:  12.785   0.000  12.785   0.000   0.000  12.785
 Approx polarizability:  11.949   0.000  11.949   0.000   0.000  11.949

                      1                      2                      3
                     T2                     T2                     T2
 Frequencies --   1359.5634              1359.5634              1359.5634
 Red. masses --      1.1784                 1.1784                 1.1784
 Frc consts  --      1.2833                 1.2833                 1.2833
 IR Inten    --     17.3190                17.3190                17.3190

                      4                      5                      6
                      E                      E                     A1
 Frequencies --   1582.2912              1582.2912              3056.0182
 Red. masses --      1.0078                 1.0078                 1.0078
 Frc consts  --      1.4866                 1.4866                 5.5456
 IR Inten    --      0.0000                 0.0000                 0.0000

                      7                      8                      9
                     T2                     T2                     T2
 Frequencies --   3186.5551              3186.5551              3186.5551
 Red. masses --      1.1022                 1.1022                 1.1022
 Frc consts  --      6.5941                 6.5941                 6.5941
 IR Inten    --     23.2567                23.2567                23.2567

 - Thermochemistry -
 -------------------
 Temperature   298.150 Kelvin.  Pressure   1.00000 Atm.
 Atom     1 has atomic number  6 and mass  12.00000

 Molecular mass:    16.03130 amu.
 Principal axes and moments of inertia in atomic units:
                           1         2         3
     Eigenvalues --    11.43248  11.43248  11.43248
           X            0.97782  -0.20730  -0.02994
           Y            0.20195   0.89524   0.39720
           Z           -0.05554  -0.39443   0.91724
 This molecule is a spherical top.
 Rotational symmetry number 12.
 Rotational temperatures (Kelvin)      7.57612     7.57612     7.57612
 Rotational constants (GHZ):         157.86087   157.86087   157.86087
 Zero-point vibrational energy     118782.9 (Joules/Mol)
                                   28.38980 (Kcal/Mol)
 Vibrational temperatures:   1956.11  1956.11  1956.11  2276.56  2276.56
          (Kelvin)           4396.92  4584.74  4584.74  4584.74

 Zero-point correction=                           0.045242 (Hartree/Particle)
 Thermal correction to Energy=                    0.048108
 Thermal correction to Enthalpy=                  0.049052
 Thermal correction to Gibbs Free Energy=         0.027923
 Sum of electronic and zero-point Energies=            -40.461901
 Sum of electronic and thermal Energies=               -40.459035
 Sum of electronic and thermal Enthalpies=             -40.458091
 Sum of electronic and thermal Free Energies=          -40.479220

                     E (Thermal)             CV                S
                      KCal/Mol        Cal/Mol-Kelvin    Cal/Mol-Kelvin
 Total                   30.188              6.438             44.469
 Electronic               0.000              0.000              0.000
 Translational            0.889              2.981             34.261
 Rotational               0.889              2.981             10.128
 Vibrational             28.411              0.477              0.080

 Optimization completed.
    -- Stationary point found.
 Normal termination of Gaussian 09 at Mon Nov 12 02:10:16 2018.
