 Gaussian 09, Revision D.01,
 Gaussian 09:  EM64L-G09RevD.01 24-Apr-2013

 ---------------------------------------------------------------
 #M06/6-311g(d,p) opt=(maxcycle=1024) freq=noraman int=ultrafine
 ---------------------------------------------------------------

 -------------------
 Title Card Required
 -------------------
 Symbolic Z-matrix:
 Charge =  0 Multiplicity = 1

 SCF Done:  E(RM06) =  -40.4871212917     A.U. after    9 cycles
 SCF Done:  E(RM06) =  -40.4882274099     A.U. after    9 cycles
 Optimization completed.
    -- Stationary point found.
 Normal termination of Gaussian 09 at Thu Aug  9 15:50:21 2018.

 ---------------------------------------------------------------------
 #N Geom=AllCheck Guess=TCheck SCRF=Check GenChk RM06/6-311G(d,p) Freq
 ---------------------------------------------------------------------

 Structure from the checkpoint file:  "311methane.chk"
 -------------------
 Title Card Required
 -------------------
 Charge =  0 Multiplicity = 1

                         Standard orientation:
 ---------------------------------------------------------------------
 Center     Atomic      Atomic             Coordinates (Angstroms)
 Number     Number       Type             X           Y           Z
 ---------------------------------------------------------------------
      1          6           0        0.000000    0.000000    0.000000
      2          1           0        0.629501    0.629501    0.629501
      3          1           0       -0.629501   -0.629501    0.629501
      4          1           0       -0.629501    0.629501   -0.629501
      5          1           0        0.629501   -0.629501   -0.629501
 ---------------------------------------------------------------------

 SCF Done:  E(RM06) =  -40.4882274099     A.U. after    1 cycles

 The electronic state is 1-A1.
 Alpha  occ. eigenvalues --  -10.21569  -0.70497  -0.40300  -0.40300  -0.40300
 Alpha virt. eigenvalues --    0.05899   0.11517   0.11517   0.11517   0.28414
 Alpha virt. eigenvalues --    0.28414   0.28414   0.53259   0.56551   0.56551
 Alpha virt. eigenvalues --    0.56551   0.72372   0.95643   0.95643   1.44877

 Mulliken charges:
               1
     1  C   -0.453056
     2  H    0.113264
     3  H    0.113264
     4  H    0.113264
     5  H    0.113264
 Sum of Mulliken charges =   0.00000

 Dipole moment (field-independent basis, Debye):
    X=              0.0000    Y=              0.0000    Z=              0.0000  Tot=              0.0000
 Quadrupole moment (field-independent basis, Debye-Ang):
   XX=             -8.3903   YY=             -8.3903   ZZ=             -8.3903
   XY=              0.0000   XZ=              0.0000   YZ=              0.0000

  Exact polarizability:  13.762   0.000  13.762   0.000   0.000  13.762
 Approx polarizability:  16.396   0.000  16.396   0.000   0.000  16.396

                      1                      2                      3
                     T2                     T2                     T2
 Frequencies --   1309.5486              1309.5486              1309.5486
 Red. masses --      1.1789                 1.1789                 1.1789
 Frc consts  --      1.1912                 1.1912                 1.1912
 IR Inten    --     18.2336                18.2336                18.2336

                      4                      5                      6
                      E                      E                     A1
 Frequencies --   1529.6998              1529.6998              3018.2818
 Red. masses --      1.0078                 1.0078                 1.0078
 Frc consts  --      1.3895                 1.3895                 5.4095
 IR Inten    --      0.0000                 0.0000                 0.0000

                      7                      8                      9
                     T2                     T2                     T2
 Frequencies --   3148.9207              3148.9207              3148.9207
 Red. masses --      1.1017                 1.1017                 1.1017
 Frc consts  --      6.4364                 6.4364                 6.4364
 IR Inten    --     20.8468                20.8468                20.8468

 - Thermochemistry -
 -------------------
 Temperature   298.150 Kelvin.  Pressure   1.00000 Atm.
 Atom     1 has atomic number  6 and mass  12.00000

 Molecular mass:    16.03130 amu.
 Principal axes and moments of inertia in atomic units:
                           1         2         3
     Eigenvalues --    11.40948  11.40948  11.40948
           X           -0.18127   0.00000   0.98343
           Y            0.98343   0.00000   0.18127
           Z            0.00000   1.00000   0.00000
 This molecule is a spherical top.
 Rotational symmetry number 12.
 Rotational temperatures (Kelvin)      7.59139     7.59139     7.59139
 Rotational constants (GHZ):         158.17914   158.17914   158.17914
 Zero-point vibrational energy     116355.3 (Joules/Mol)
                                   27.80959 (Kcal/Mol)
 Vibrational temperatures:   1884.15  1884.15  1884.15  2200.89  2200.89
          (Kelvin)           4342.63  4530.59  4530.59  4530.59

 Zero-point correction=                           0.044317 (Hartree/Particle)
 Thermal correction to Energy=                    0.047191
 Thermal correction to Enthalpy=                  0.048135
 Thermal correction to Gibbs Free Energy=         0.027000
 Sum of electronic and zero-point Energies=            -40.443910
 Sum of electronic and thermal Energies=               -40.441036
 Sum of electronic and thermal Enthalpies=             -40.440092
 Sum of electronic and thermal Free Energies=          -40.461227

                     E (Thermal)             CV                S
                      KCal/Mol        Cal/Mol-Kelvin    Cal/Mol-Kelvin
 Total                   29.613              6.527             44.482
 Electronic               0.000              0.000              0.000
 Translational            0.889              2.981             34.261
 Rotational               0.889              2.981             10.122
 Vibrational             27.835              0.566              0.100

 Optimization completed.
    -- Stationary point found.
 Normal termination of Gaussian 09 at Thu Aug  9 15:50:27 2018.
