 Gaussian 16, Revision A.03,
 Gaussian 16:  ES64L-G16RevA.03 25-Dec-2016

 ----------------------------------------------------------------------
 #wb97xd/gen pseudo opt=(maxcycle=1024) freq=noraman int=ultrafine 6d g
 09defaults
 ----------------------------------------------------------------------

 -------------------
 Title Card Required
 -------------------
 Symbolic Z-matrix:
 Charge =  2 Multiplicity = 5

 SCF Done:  E(UwB97XD) =  -560.230851377     A.U. after   31 cycles
 SCF Done:  E(UwB97XD) =  -560.233700950     A.U. after   19 cycles
 SCF Done:  E(UwB97XD) =  -560.234155853     A.U. after   18 cycles
 SCF Done:  E(UwB97XD) =  -560.234301542     A.U. after   18 cycles
 SCF Done:  E(UwB97XD) =  -560.234358902     A.U. after   18 cycles
 SCF Done:  E(UwB97XD) =  -560.234370932     A.U. after   17 cycles
 SCF Done:  E(UwB97XD) =  -560.234391371     A.U. after   18 cycles
 SCF Done:  E(UwB97XD) =  -560.234406188     A.U. after   18 cycles
 SCF Done:  E(UwB97XD) =  -560.234411916     A.U. after   18 cycles
 SCF Done:  E(UwB97XD) =  -560.234413454     A.U. after   16 cycles
 SCF Done:  E(UwB97XD) =  -560.234415218     A.U. after   15 cycles
 SCF Done:  E(UwB97XD) =  -560.234412466     A.U. after   15 cycles
 SCF Done:  E(UwB97XD) =  -560.234410839     A.U. after   15 cycles
 SCF Done:  E(UwB97XD) =  -560.234411787     A.U. after   14 cycles
 SCF Done:  E(UwB97XD) =  -560.234412902     A.U. after   17 cycles
 SCF Done:  E(UwB97XD) =  -560.234414547     A.U. after   14 cycles
 SCF Done:  E(UwB97XD) =  -560.234414821     A.U. after   14 cycles
 SCF Done:  E(UwB97XD) =  -560.234414833     A.U. after   14 cycles
 Optimization completed.
    -- Stationary point found.
 Normal termination of Gaussian 16 at Mon Oct 15 20:17:38 2018.

 -------------------------------------------------------------------
 #N Geom=AllCheck Guess=TCheck SCRF=Check GenChk UwB97XD/ChkBas Freq
 -------------------------------------------------------------------

 Structure from the checkpoint file:  "w2.chk"
 -------------------
 Title Card Required
 -------------------
 Charge =  2 Multiplicity = 5

                         Standard orientation:
 ---------------------------------------------------------------------
 Center     Atomic      Atomic             Coordinates (Angstroms)
 Number     Number       Type             X           Y           Z
 ---------------------------------------------------------------------
      1          8           0       -1.869936   -0.878716   -0.162764
      2          8           0        1.930144    0.772177    0.016905
      3          8           0        0.847538   -1.884479   -0.065385
      4          8           0       -0.820973    1.911490   -0.038442
      5          8           0        0.051154    0.093797   -1.720995
      6          1           0       -2.113952   -1.673280    0.331449
      7          1           0       -2.363631   -0.895539   -0.995816
      8          1           0        2.223436    1.462086    0.627591
      9          1           0        2.407249    0.912869   -0.814599
     10          1           0        0.797565   -2.425009   -0.867858
     11          1           0        1.740698   -2.004026    0.288399
     12          1           0       -1.481308    2.239612    0.586356
     13          1           0       -0.925507    2.410360   -0.861980
     14         26           0       -0.003530    0.024422   -0.132462
     15          7           0       -0.120216   -0.067670    1.971403
     16          1           0       -1.079463    0.019855    2.312185
     17          1           0        0.212446   -0.965293    2.328641
     18          1           0        0.412349    0.642939    2.475265
 ---------------------------------------------------------------------

 SCF Done:  E(UwB97XD) =  -560.234414833     A.U. after    1 cycles

 The electronic state is 5-A.
 Alpha  occ. eigenvalues --  -19.66981 -19.65746 -19.65678 -19.65584 -19.65352
 Alpha  occ. eigenvalues --  -14.81877  -4.15653  -2.93797  -2.93783  -2.91193
 Alpha  occ. eigenvalues --   -1.49002  -1.48456  -1.48409  -1.48088  -1.40471
 Alpha  occ. eigenvalues --   -1.32964  -0.99552  -0.99535  -0.99063  -0.98569
 Alpha  occ. eigenvalues --   -0.95063  -0.93132  -0.92658  -0.92516  -0.90062
 Alpha  occ. eigenvalues --   -0.90052  -0.89215  -0.88241  -0.87800  -0.87749
 Alpha  occ. eigenvalues --   -0.79896  -0.77801  -0.77685  -0.77121  -0.75614
 Alpha  occ. eigenvalues --   -0.74908  -0.74575  -0.74462
 Alpha virt. eigenvalues --   -0.40000  -0.22631  -0.20433  -0.20330  -0.18187
 Alpha virt. eigenvalues --   -0.13371  -0.09472  -0.09151  -0.08660  -0.07610
 Alpha virt. eigenvalues --   -0.06708  -0.06424  -0.04496  -0.04099  -0.02952

  Beta  occ. eigenvalues --  -19.65569 -19.65508 -19.65413 -19.65198 -19.65105
  Beta  occ. eigenvalues --  -14.81903  -3.98334  -2.77345  -2.72986  -2.72970
  Beta  occ. eigenvalues --   -1.48626  -1.48090  -1.48048  -1.47738  -1.34605
  Beta  occ. eigenvalues --   -1.32900  -0.99045  -0.98968  -0.98696  -0.98324
  Beta  occ. eigenvalues --   -0.92111  -0.91955  -0.91798  -0.88643  -0.87287
  Beta  occ. eigenvalues --   -0.86982  -0.84146  -0.79702  -0.78733  -0.78357
  Beta  occ. eigenvalues --   -0.76826  -0.75688  -0.74211  -0.74004
  Beta virt. eigenvalues --   -0.39012  -0.38484  -0.38424  -0.35025  -0.32365
  Beta virt. eigenvalues --   -0.22341  -0.20219  -0.20119  -0.18107  -0.13075
  Beta virt. eigenvalues --   -0.09142  -0.08839  -0.08541  -0.07485  -0.06599

 Mulliken charges and spin densities:
               1          2
     1  O   -0.617785   0.048608
     2  O   -0.616471   0.047862
     3  O   -0.612218   0.043163
     4  O   -0.617540   0.051188
     5  O   -0.327257   0.790855
     6  H    0.413605   0.001418
     7  H    0.421617   0.002113
     8  H    0.412442   0.001464
     9  H    0.421790   0.002147
    10  H    0.419219   0.001936
    11  H    0.413900   0.001599
    12  H    0.413481   0.001144
    13  H    0.422956   0.002269
    14  Fe   1.137269   3.014278
    15  N   -0.786029  -0.013993
    16  H    0.365604   0.001292
    17  H    0.370730   0.001400
    18  H    0.364688   0.001254
 Sum of Mulliken charges =   2.00000   4.00000

 Dipole moment (field-independent basis, Debye):
    X=             -0.1598    Y=              0.1202    Z=              3.4999  Tot=              3.5056
 Quadrupole moment (field-independent basis, Debye-Ang):
   XX=            -14.9170   YY=            -15.2828   ZZ=            -28.4880
   XY=              0.4912   XZ=              0.2255   YZ=              1.7645

  Exact polarizability:  48.817   0.139  48.746  -0.361  -0.298  60.734
 Approx polarizability:  46.033   0.235  45.931  -1.049  -1.368  85.088

                      1                      2                      3
                      A                      A                      A
 Frequencies --     45.3874                74.1780               110.4518
 Red. masses --      1.5731                 2.0394                 1.8877
 Frc consts  --      0.0019                 0.0066                 0.0136
 IR Inten    --      6.0556                 2.0309                 6.5565

                      4                      5                      6
                      A                      A                      A
 Frequencies --    122.2058               150.8224               155.2963
 Red. masses --      2.9339                 3.3110                 2.5134
 Frc consts  --      0.0258                 0.0444                 0.0357
 IR Inten    --      2.4560                 2.0674                 4.0477

                      7                      8                      9
                      A                      A                      A
 Frequencies --    168.2462               191.5167               196.8835
 Red. masses --      2.4285                 2.4269                 1.5975
 Frc consts  --      0.0405                 0.0524                 0.0365
 IR Inten    --      1.3841                 0.7626                 8.5901

                     10                     11                     12
                      A                      A                      A
 Frequencies --    229.9947               241.2817               257.7500
 Red. masses --      1.6216                 1.5117                 5.1283
 Frc consts  --      0.0505                 0.0519                 0.2007
 IR Inten    --     26.5658                24.7941                 1.2587

                     13                     14                     15
                      A                      A                      A
 Frequencies --    273.5200               278.2807               303.3218
 Red. masses --      3.7249                 4.6676                 1.2862
 Frc consts  --      0.1642                 0.2130                 0.0697
 IR Inten    --     31.1291                14.5832                81.2251

                     16                     17                     18
                      A                      A                      A
 Frequencies --    349.6701               374.7429               377.2690
 Red. masses --      3.7794                 4.7564                 5.5276
 Frc consts  --      0.2723                 0.3935                 0.4635
 IR Inten    --      5.1553                 9.8677                 9.4890

                     19                     20                     21
                      A                      A                      A
 Frequencies --    389.3953               422.6450               489.8883
 Red. masses --      4.9987                 1.1994                 1.2021
 Frc consts  --      0.4466                 0.1262                 0.1700
 IR Inten    --      3.0664               136.7857               311.0502

                     22                     23                     24
                      A                      A                      A
 Frequencies --    507.4833               556.8931               619.1008
 Red. masses --      1.2122                 1.1875                 1.1699
 Frc consts  --      0.1839                 0.2170                 0.2642
 IR Inten    --    421.4516               159.5973                 8.6734

                     25                     26                     27
                      A                      A                      A
 Frequencies --    620.0258               637.1972               664.0759
 Red. masses --      1.1858                 1.1608                 1.2202
 Frc consts  --      0.2686                 0.2777                 0.3170
 IR Inten    --     19.9694                13.6622               102.6114

                     28                     29                     30
                      A                      A                      A
 Frequencies --    711.7741               714.5471               993.3752
 Red. masses --      1.1896                 1.1828                17.1035
 Frc consts  --      0.3551                 0.3558                 9.9440
 IR Inten    --     95.4011                98.3177                33.6194

                     31                     32                     33
                      A                      A                      A
 Frequencies --   1383.4258              1662.4451              1669.2457
 Red. masses --      1.1798                 1.0809                 1.0734
 Frc consts  --      1.3304                 1.7600                 1.7623
 IR Inten    --    150.0112                92.1416               208.4583

                     34                     35                     36
                      A                      A                      A
 Frequencies --   1672.7623              1675.4576              1679.8374
 Red. masses --      1.0814                 1.0852                 1.0717
 Frc consts  --      1.7829                 1.7948                 1.7818
 IR Inten    --     50.8377               143.4935                46.8483

                     37                     38                     39
                      A                      A                      A
 Frequencies --   1698.8227              3482.5419              3585.0096
 Red. masses --      1.0632                 1.0323                 1.0891
 Frc consts  --      1.8078                 7.3764                 8.2470
 IR Inten    --     21.6884                65.2534                67.9542

                     40                     41                     42
                      A                      A                      A
 Frequencies --   3592.3018              3808.9083              3813.8108
 Red. masses --      1.0892                 1.0446                 1.0450
 Frc consts  --      8.2811                 8.9293                 8.9555
 IR Inten    --     65.9187               147.6181               343.8534

                     43                     44                     45
                      A                      A                      A
 Frequencies --   3815.1595              3823.8084              3901.3579
 Red. masses --      1.0446                 1.0454                 1.0839
 Frc consts  --      8.9581                 9.0055                 9.7199
 IR Inten    --    230.1031                88.3083               195.1166

                     46                     47                     48
                      A                      A                      A
 Frequencies --   3910.4051              3912.7278              3917.8845
 Red. masses --      1.0838                 1.0846                 1.0847
 Frc consts  --      9.7645                 9.7830                 9.8101
 IR Inten    --    181.0890               196.1683               288.5337

 - Thermochemistry -
 -------------------
 Temperature   298.150 Kelvin.  Pressure   1.00000 Atm.
 Atom     1 has atomic number  8 and mass  15.99491

 Molecular mass:   160.99866 amu.
 Principal axes and moments of inertia in atomic units:
                           1         2         3
     Eigenvalues --  1037.136121040.594851190.57307
           X            0.98362   0.18023  -0.00363
           Y           -0.18016   0.98351   0.01563
           Z            0.00638  -0.01472   0.99987
 This molecule is an asymmetric top.
 Rotational symmetry number  1.
 Warning -- assumption of classical behavior for rotation
           may cause significant error
 Rotational temperatures (Kelvin)      0.08351     0.08323     0.07275
 Rotational constants (GHZ):           1.74012     1.73434     1.51586
 Zero-point vibrational energy     384199.4 (Joules/Mol)
                                   91.82587 (Kcal/Mol)
 Warning -- explicit consideration of  25 degrees of freedom as
           vibrations may cause significant error
 Vibrational temperatures:     65.30   106.73   158.92   175.83   217.00
          (Kelvin)            223.44   242.07   275.55   283.27   330.91
                              347.15   370.84   393.53   400.38   436.41
                              503.10   539.17   542.81   560.25   608.09
                              704.84   730.15   801.24   890.75   892.08
                              916.78   955.46  1024.08  1028.07  1429.24
                             1990.44  2391.88  2401.67  2406.73  2410.61
                             2416.91  2444.22  5010.59  5158.02  5168.51
                             5480.16  5487.22  5489.16  5501.60  5613.18
                             5626.19  5629.54  5636.95

 Zero-point correction=                           0.146334 (Hartree/Particle)
 Thermal correction to Energy=                    0.161154
 Thermal correction to Enthalpy=                  0.162099
 Thermal correction to Gibbs Free Energy=         0.105253
 Sum of electronic and zero-point Energies=           -560.088081
 Sum of electronic and thermal Energies=              -560.073260
 Sum of electronic and thermal Enthalpies=            -560.072316
 Sum of electronic and thermal Free Energies=         -560.129161

                     E (Thermal)             CV                S
                      KCal/Mol        Cal/Mol-Kelvin    Cal/Mol-Kelvin
 Total                  101.126             50.922            119.641
 Electronic               0.000              0.000              3.198
 Translational            0.889              2.981             41.138
 Rotational               0.889              2.981             28.643
 Vibrational             99.349             44.960             46.662
 Vibration     1          0.595              1.979              5.009
 Vibration     2          0.599              1.966              4.039
 Vibration     3          0.606              1.941              3.261
 Vibration     4          0.610              1.931              3.065
 Vibration     5          0.618              1.902              2.662
 Vibration     6          0.620              1.897              2.606
 Vibration     7          0.625              1.882              2.455
 Vibration     8          0.634              1.852              2.213
 Vibration     9          0.636              1.844              2.162
 Vibration    10          0.652              1.795              1.879
 Vibration    11          0.658              1.777              1.793
 Vibration    12          0.667              1.750              1.677
 Vibration    13          0.676              1.722              1.574
 Vibration    14          0.679              1.714              1.544
 Vibration    15          0.695              1.667              1.399
 Vibration    16          0.727              1.576              1.168
 Vibration    17          0.746              1.524              1.060
 Vibration    18          0.748              1.519              1.050
 Vibration    19          0.757              1.493              1.002
 Vibration    20          0.785              1.421              0.883
 Vibration    21          0.846              1.272              0.684
 Vibration    22          0.863              1.233              0.640
 Vibration    23          0.912              1.125              0.530
 Vibration    24          0.979              0.992              0.418
 Vibration    25          0.980              0.990              0.416

                           ! Non-Optimized Parameters !
 Normal termination of Gaussian 16 at Mon Oct 15 20:18:57 2018.
