 Gaussian 09, Revision D.01,
 Gaussian 09:  EM64L-G09RevD.01 24-Apr-2013

 ----------------------------------------------------------------------
 #p opt=(calcfc,ts,noeigen,maxcycle=1024,maxstep=3) guess=check geom=ch
 eck freq=noraman uwb97xd/gen 6d int=ultrafine pseudo scf=tight
 ----------------------------------------------------------------------

 -------------------
 Title Card Required
 -------------------
 Structure from the checkpoint file:  "wts222.chk"
 Charge =  2 Multiplicity = 5

 SCF Done:  E(UwB97XD) =  -600.742202025     A.U. after    1 cycles
 SCF Done:  E(UwB97XD) =  -600.742206952     A.U. after   15 cycles
 SCF Done:  E(UwB97XD) =  -600.742201604     A.U. after   15 cycles
 SCF Done:  E(UwB97XD) =  -600.742204422     A.U. after   15 cycles
 SCF Done:  E(UwB97XD) =  -600.742205807     A.U. after   16 cycles
 SCF Done:  E(UwB97XD) =  -600.742206901     A.U. after   15 cycles
 SCF Done:  E(UwB97XD) =  -600.742208244     A.U. after   14 cycles
 SCF Done:  E(UwB97XD) =  -600.742209441     A.U. after   15 cycles
 SCF Done:  E(UwB97XD) =  -600.742210767     A.U. after   15 cycles
 SCF Done:  E(UwB97XD) =  -600.742212172     A.U. after   15 cycles
 SCF Done:  E(UwB97XD) =  -600.742217588     A.U. after   14 cycles
 SCF Done:  E(UwB97XD) =  -600.742219443     A.U. after   15 cycles
 SCF Done:  E(UwB97XD) =  -600.742218274     A.U. after   15 cycles
 SCF Done:  E(UwB97XD) =  -600.742216990     A.U. after   14 cycles
 SCF Done:  E(UwB97XD) =  -600.742217169     A.U. after   15 cycles
 SCF Done:  E(UwB97XD) =  -600.742217221     A.U. after   15 cycles
 SCF Done:  E(UwB97XD) =  -600.742218162     A.U. after   14 cycles
 SCF Done:  E(UwB97XD) =  -600.742217645     A.U. after   13 cycles
 SCF Done:  E(UwB97XD) =  -600.742218336     A.U. after   14 cycles
 Optimization completed on the basis of negligible forces.
    -- Stationary point found.
 Normal termination of Gaussian 09 at Tue Dec 25 15:40:52 2018.

 -------------------------------------------------------------------
 #P Geom=AllCheck Guess=TCheck SCRF=Check GenChk UwB97XD/ChkBas Freq
 -------------------------------------------------------------------

 Structure from the checkpoint file:  "wts222.chk"
 -------------------
 Title Card Required
 -------------------
 Charge =  2 Multiplicity = 5

                         Standard orientation:
 ---------------------------------------------------------------------
 Center     Atomic      Atomic             Coordinates (Angstroms)
 Number     Number       Type             X           Y           Z
 ---------------------------------------------------------------------
      1          8           0       -0.562195    1.016978    1.809168
      2          8           0       -0.352743   -0.982079   -1.852618
      3          8           0       -0.413721    1.874711   -0.931714
      4          8           0       -0.455153   -1.797107    1.053818
      5          8           0        1.277986   -0.000168    0.021846
      6          1           0       -0.886080    1.928574    1.814236
      7          1           0        0.177164    0.984936    2.432971
      8          1           0       -0.979514   -1.642214   -2.175454
      9          1           0        0.499373   -1.156290   -2.276628
     10          1           0        0.436980    2.321558   -1.049490
     11          1           0       -0.962689    2.113090   -1.690479
     12          1           0        0.356852   -2.305354    1.189622
     13          1           0       -1.039231   -1.979052    1.801738
     14         26           0       -0.345791   -0.009025   -0.016974
     15          7           0       -2.520462   -0.076527   -0.081745
     16          1           0       -2.931168    0.328376    0.760943
     17          1           0       -2.960225    0.415246   -0.860247
     18          1           0       -2.886139   -1.028806   -0.126374
     19          6           0        4.197019   -0.010977    0.038614
     20          1           0        4.526764   -1.048628    0.094722
     21          1           0        3.076204   -0.003910    0.047945
     22          1           0        4.541190    0.555572    0.904139
     23          1           0        4.528829    0.454415   -0.889776
 ---------------------------------------------------------------------

 SCF Done:  E(UwB97XD) =  -600.742218336     A.U. after    1 cycles

 The electronic state is 5-A.
 Alpha  occ. eigenvalues --  -19.64352 -19.64335 -19.64305 -19.64242 -19.63988
 Alpha  occ. eigenvalues --  -14.79648 -10.49553  -4.16146  -2.94040  -2.94025
 Alpha  occ. eigenvalues --   -2.92440  -1.47673  -1.47190  -1.47132  -1.46836
 Alpha  occ. eigenvalues --   -1.36564  -1.30959  -0.99918  -0.98220  -0.98167
 Alpha  occ. eigenvalues --   -0.97877  -0.97365  -0.94223  -0.92591  -0.90925
 Alpha  occ. eigenvalues --   -0.90731  -0.89006  -0.88477  -0.88439  -0.87694
 Alpha  occ. eigenvalues --   -0.86612  -0.86464  -0.79133  -0.76544  -0.76412
 Alpha  occ. eigenvalues --   -0.75842  -0.74421  -0.74199  -0.72190  -0.72107
 Alpha  occ. eigenvalues --   -0.68400  -0.68380  -0.66398
 Alpha virt. eigenvalues --   -0.40544  -0.21677  -0.19729  -0.19605  -0.17507
 Alpha virt. eigenvalues --   -0.12365  -0.08375  -0.08146  -0.07580  -0.06611
 Alpha virt. eigenvalues --   -0.05673  -0.05427  -0.03456  -0.03025  -0.02269

  Beta  occ. eigenvalues --  -19.64155 -19.64116 -19.64058 -19.63822 -19.63619
  Beta  occ. eigenvalues --  -14.79573 -10.49730  -3.95671  -2.73050  -2.70986
  Beta  occ. eigenvalues --   -2.70974  -1.47298  -1.46811  -1.46741  -1.46464
  Beta  occ. eigenvalues --   -1.34139  -1.30773  -1.00773  -0.97697  -0.97690
  Beta  occ. eigenvalues --   -0.97471  -0.97089  -0.90442  -0.89873  -0.89826
  Beta  occ. eigenvalues --   -0.87123  -0.85938  -0.85574  -0.84000  -0.78275
  Beta  occ. eigenvalues --   -0.77205  -0.76722  -0.75947  -0.74562  -0.72547
  Beta  occ. eigenvalues --   -0.72324  -0.68639  -0.68620  -0.67304
  Beta virt. eigenvalues --   -0.37617  -0.36734  -0.36639  -0.33777  -0.30645
  Beta virt. eigenvalues --   -0.21329  -0.19554  -0.19433  -0.17386  -0.12057
  Beta virt. eigenvalues --   -0.08045  -0.07852  -0.07395  -0.06467  -0.05518

 Mulliken charges and spin densities:
               1          2
     1  O   -0.615125   0.046347
     2  O   -0.619515   0.053508
     3  O   -0.619055   0.049926
     4  O   -0.620703   0.051445
     5  O   -0.419045   0.298471
     6  H    0.410584   0.001695
     7  H    0.415053   0.002150
     8  H    0.409760   0.001589
     9  H    0.418078   0.002587
    10  H    0.417514   0.002363
    11  H    0.409386   0.001730
    12  H    0.417343   0.002436
    13  H    0.410122   0.001687
    14  Fe   1.175544   3.585667
    15  N   -0.799951   0.031532
    16  H    0.362777   0.000416
    17  H    0.356566   0.000473
    18  H    0.356829   0.000381
    19  C   -0.548895  -0.135365
    20  H    0.185955   0.000953
    21  H    0.123361  -0.001751
    22  H    0.188198   0.000696
    23  H    0.185221   0.001066
 Sum of Mulliken charges =   2.00000   4.00000

 Dipole moment (field-independent basis, Debye):
    X=             -5.5731    Y=             -0.1144    Z=             -0.3507  Tot=              5.5853
 Quadrupole moment (field-independent basis, Debye-Ang):
   XX=            -19.3995   YY=            -23.5681   ZZ=            -23.5025
   XY=              0.4479   XZ=              1.1642   YZ=             -0.6329

  Exact polarizability: 159.162  -0.130  59.640   1.433  -0.198  59.674
 Approx polarizability: 132.757  -0.187  57.116   1.636  -0.292  57.128

 ******    1 imaginary frequencies (negative Signs) ******

                      1                      2                      3
                      A                      A                      A
 Frequencies --   -198.3208                21.3550                29.1667
 Red. masses --      3.2518                 1.1130                 2.7893
 Frc consts  --      0.0754                 0.0003                 0.0014
 IR Inten    --    496.3478                 0.0909                 0.9131

                      4                      5                      6
                      A                      A                      A
 Frequencies --     32.7680                42.2501                64.2279
 Red. masses --      2.5678                 1.6200                 2.0635
 Frc consts  --      0.0016                 0.0017                 0.0050
 IR Inten    --      0.5717                 3.4526                 3.9408

                      7                      8                      9
                      A                      A                      A
 Frequencies --    105.0934               112.5419               143.7387
 Red. masses --      1.9991                 2.7943                 2.9940
 Frc consts  --      0.0130                 0.0209                 0.0364
 IR Inten    --      2.9974                 4.9359                 1.9396

                     10                     11                     12
                      A                      A                      A
 Frequencies --    145.2534               154.5785               159.8739
 Red. masses --      1.9677                 1.6658                 1.2291
 Frc consts  --      0.0245                 0.0235                 0.0185
 IR Inten    --      2.7103                 0.1984                 0.7127

                     13                     14                     15
                      A                      A                      A
 Frequencies --    164.2543               172.0617               189.3954
 Red. masses --      1.7968                 3.6557                 1.4459
 Frc consts  --      0.0286                 0.0638                 0.0306
 IR Inten    --      1.2322                 2.8217                 9.5802

                     16                     17                     18
                      A                      A                      A
 Frequencies --    218.2024               227.6705               254.1361
 Red. masses --      1.4226                 1.5814                 3.5377
 Frc consts  --      0.0399                 0.0483                 0.1346
 IR Inten    --     17.9261                17.1579                26.2074

                     19                     20                     21
                      A                      A                      A
 Frequencies --    260.4771               277.6207               291.1507
 Red. masses --      2.8536                 5.0993                 1.4601
 Frc consts  --      0.1141                 0.2316                 0.0729
 IR Inten    --     29.6486                 1.9744                18.3647

                     22                     23                     24
                      A                      A                      A
 Frequencies --    323.1913               348.8581               365.7426
 Red. masses --      2.3770                 5.3418                 5.1592
 Frc consts  --      0.1463                 0.3830                 0.4066
 IR Inten    --     59.2023                62.8901                 9.8650

                     25                     26                     27
                      A                      A                      A
 Frequencies --    371.5581               404.1329               468.7102
 Red. masses --      4.0135                 1.2962                 1.2133
 Frc consts  --      0.3265                 0.1247                 0.1570
 IR Inten    --     19.5261               136.2659               314.7561

                     28                     29                     30
                      A                      A                      A
 Frequencies --    493.0271               539.1073               587.7720
 Red. masses --      1.2123                 1.1798                 1.2094
 Frc consts  --      0.1736                 0.2020                 0.2462
 IR Inten    --    388.3113               155.7288                70.5603

                     31                     32                     33
                      A                      A                      A
 Frequencies --    588.5614               599.2701               618.0012
 Red. masses --      1.2050                 1.5057                 1.1745
 Frc consts  --      0.2459                 0.3186                 0.2643
 IR Inten    --     49.9126               569.9992                40.6754

                     34                     35                     36
                      A                      A                      A
 Frequencies --    675.0651               679.3743               739.1744
 Red. masses --      1.1976                 1.1811                 3.4278
 Frc consts  --      0.3216                 0.3212                 1.1035
 IR Inten    --    107.0763               106.7949                99.0389

                     37                     38                     39
                      A                      A                      A
 Frequencies --   1276.4427              1279.0026              1309.8855
 Red. masses --      1.1513                 1.1507                 1.2734
 Frc consts  --      1.1052                 1.1091                 1.2873
 IR Inten    --     17.3072                16.8173               277.6629

                     40                     41                     42
                      A                      A                      A
 Frequencies --   1369.5572              1487.5843              1488.7590
 Red. masses --      1.1776                 1.0258                 1.0256
 Frc consts  --      1.3014                 1.3375                 1.3393
 IR Inten    --    164.1164                 4.7653                 4.5600

                     43                     44                     45
                      A                      A                      A
 Frequencies --   1660.9620              1667.2321              1670.4089
 Red. masses --      1.0842                 1.0855                 1.0801
 Frc consts  --      1.7624                 1.7777                 1.7757
 IR Inten    --    109.7187               198.1530                86.2956

                     46                     47                     48
                      A                      A                      A
 Frequencies --   1672.3309              1680.5476              1699.0023
 Red. masses --      1.0848                 1.0623                 1.0614
 Frc consts  --      1.7876                 1.7677                 1.8052
 IR Inten    --    133.2553                 8.0789                22.4983

                     49                     50                     51
                      A                      A                      A
 Frequencies --   2614.1570              3100.5154              3213.7952
 Red. masses --      1.0654                 1.0335                 1.1049
 Frc consts  --      4.2899                 5.8534                 6.7240
 IR Inten    --   5083.9059                51.7277                 1.5960

                     52                     53                     54
                      A                      A                      A
 Frequencies --   3213.9669              3488.4939              3592.1436
 Red. masses --      1.1050                 1.0323                 1.0886
 Frc consts  --      6.7249                 7.4015                 8.2764
 IR Inten    --      1.7861                69.4487                59.2786

                     55                     56                     57
                      A                      A                      A
 Frequencies --   3597.7042              3819.9614              3823.8362
 Red. masses --      1.0886                 1.0445                 1.0448
 Frc consts  --      8.3020                 8.9801                 9.0011
 IR Inten    --     57.2839               145.7340               241.7188

                     58                     59                     60
                      A                      A                      A
 Frequencies --   3827.1188              3832.4785              3913.6949
 Red. masses --      1.0444                 1.0449                 1.0839
 Frc consts  --      9.0126                 9.0426                 9.7819
 IR Inten    --    240.7173                51.7857               181.8010

                     61                     62                     63
                      A                      A                      A
 Frequencies --   3920.4278              3927.3128              3928.9920
 Red. masses --      1.0839                 1.0847                 1.0847
 Frc consts  --      9.8154                 9.8569                 9.8655
 IR Inten    --    185.1921               109.4443               337.8287

 - Thermochemistry -
 -------------------
 Temperature   298.150 Kelvin.  Pressure   1.00000 Atm.
 Atom     1 has atomic number  8 and mass  15.99491

 Molecular mass:   177.02996 amu.
 Principal axes and moments of inertia in atomic units:
                           1         2         3
     Eigenvalues --  1217.398962206.332192210.02485
           X            0.99999   0.00162   0.00277
           Y           -0.00106   0.98165  -0.19070
           Z           -0.00303   0.19070   0.98164
 This molecule is an asymmetric top.
 Rotational symmetry number  1.
 Warning -- assumption of classical behavior for rotation
           may cause significant error
 Rotational temperatures (Kelvin)      0.07115     0.03926     0.03919
 Rotational constants (GHZ):           1.48246     0.81798     0.81662
    1 imaginary frequencies ignored.
 Zero-point vibrational energy     496113.3 (Joules/Mol)
                                  118.57394 (Kcal/Mol)
 Warning -- explicit consideration of  32 degrees of freedom as
           vibrations may cause significant error
 Vibrational temperatures:     30.73    41.96    47.15    60.79    92.41
          (Kelvin)            151.21   161.92   206.81   208.99   222.40
                              230.02   236.33   247.56   272.50   313.94
                              327.57   365.64   374.77   399.43   418.90
                              465.00   501.93   526.22   534.59   581.46
                              674.37   709.36   775.65   845.67   846.81
                              862.21   889.16   971.27   977.47  1063.51
                             1836.51  1840.20  1884.63  1970.48  2140.30
                             2141.99  2389.75  2398.77  2403.34  2406.11
                             2417.93  2444.48  3761.18  4460.94  4623.93
                             4624.18  5019.16  5168.29  5176.29  5496.07
                             5501.64  5506.36  5514.07  5630.93  5640.61
                             5650.52  5652.94

 Zero-point correction=                           0.188960 (Hartree/Particle)
 Thermal correction to Energy=                    0.208257
 Thermal correction to Enthalpy=                  0.209201
 Thermal correction to Gibbs Free Energy=         0.139164
 Sum of electronic and zero-point Energies=           -600.553259
 Sum of electronic and thermal Energies=              -600.533962
 Sum of electronic and thermal Enthalpies=            -600.533017
 Sum of electronic and thermal Free Energies=         -600.603054

                     E (Thermal)             CV                S
                      KCal/Mol        Cal/Mol-Kelvin    Cal/Mol-Kelvin
 Total                  130.683             62.604            147.405
 Electronic               0.000              0.000              3.198
 Translational            0.889              2.981             41.421
 Rotational               0.889              2.981             30.163
 Vibrational            128.906             56.642             72.623
 Vibration     1          0.593              1.985              6.504
 Vibration     2          0.593              1.984              5.885
 Vibration     3          0.594              1.983              5.654
 Vibration     4          0.595              1.980              5.151
 Vibration     5          0.597              1.971              4.323
 Vibration     6          0.605              1.945              3.358
 Vibration     7          0.607              1.939              3.225
 Vibration     8          0.616              1.909              2.754
 Vibration     9          0.617              1.908              2.733
 Vibration    10          0.620              1.898              2.615
 Vibration    11          0.622              1.892              2.551
 Vibration    12          0.623              1.886              2.500
 Vibration    13          0.626              1.877              2.413
 Vibration    14          0.633              1.854              2.234
 Vibration    15          0.646              1.813              1.974
 Vibration    16          0.651              1.799              1.897
 Vibration    17          0.665              1.756              1.702
 Vibration    18          0.669              1.745              1.659
 Vibration    19          0.679              1.715              1.548
 Vibration    20          0.687              1.690              1.467
 Vibration    21          0.708              1.629              1.294
 Vibration    22          0.726              1.578              1.171
 Vibration    23          0.739              1.543              1.098
 Vibration    24          0.743              1.531              1.073
 Vibration    25          0.769              1.461              0.948
 Vibration    26          0.826              1.319              0.741
 Vibration    27          0.849              1.265              0.676
 Vibration    28          0.894              1.164              0.567
 Vibration    29          0.945              1.058              0.471
 Vibration    30          0.946              1.056              0.470
 Vibration    31          0.957              1.033              0.451
 Vibration    32          0.978              0.994              0.420

 Optimization completed on the basis of negligible forces.
    -- Stationary point found.
 Normal termination of Gaussian 09 at Tue Dec 25 15:46:03 2018.
